# vtk DataFile Version 3.0
Triangular mesh
ASCII
DATASET UNSTRUCTURED_GRID
POINTS 3517 double
                  -8                   -8 0.0
                   8                   -8 0.0
                  -8                    8 0.0
                   8                    8 0.0
                 0.5                    0 0.0
            0.489074             0.103956 0.0
            0.456773             0.203368 0.0
            0.404508             0.293893 0.0
            0.334565             0.371572 0.0
                0.25             0.433013 0.0
            0.154508             0.475528 0.0
           0.0522642             0.497261 0.0
          -0.0522642             0.497261 0.0
           -0.154508             0.475528 0.0
               -0.25             0.433013 0.0
           -0.334565             0.371572 0.0
           -0.404508             0.293893 0.0
           -0.456773             0.203368 0.0
           -0.489074             0.103956 0.0
                -0.5          2.83277e-16 0.0
           -0.489074            -0.103956 0.0
           -0.456773            -0.203368 0.0
           -0.404508            -0.293893 0.0
           -0.334565            -0.371572 0.0
               -0.25            -0.433013 0.0
           -0.154508            -0.475528 0.0
          -0.0522642            -0.497261 0.0
           0.0522642            -0.497261 0.0
            0.154508            -0.475528 0.0
                0.25            -0.433013 0.0
            0.334565            -0.371572 0.0
            0.404508            -0.293893 0.0
            0.456773            -0.203368 0.0
            0.489074            -0.103956 0.0
                -7.6                   -8 0.0
                -7.2                   -8 0.0
                -6.8                   -8 0.0
                -6.4                   -8 0.0
                  -6                   -8 0.0
                -5.6                   -8 0.0
                -5.2                   -8 0.0
                -4.8                   -8 0.0
                -4.4                   -8 0.0
                  -4                   -8 0.0
                -3.6                   -8 0.0
                -3.2                   -8 0.0
                -2.8                   -8 0.0
                -2.4                   -8 0.0
                  -2                   -8 0.0
                -1.6                   -8 0.0
                -1.2                   -8 0.0
                -0.8                   -8 0.0
                -0.4                   -8 0.0
                   0                   -8 0.0
                 0.4                   -8 0.0
                 0.8                   -8 0.0
                 1.2                   -8 0.0
                 1.6                   -8 0.0
                   2                   -8 0.0
                 2.4                   -8 0.0
                 2.8                   -8 0.0
                 3.2                   -8 0.0
                 3.6                   -8 0.0
                   4                   -8 0.0
                 4.4                   -8 0.0
                 4.8                   -8 0.0
                 5.2                   -8 0.0
                 5.6                   -8 0.0
                   6                   -8 0.0
                 6.4                   -8 0.0
                 6.8                   -8 0.0
                 7.2                   -8 0.0
                 7.6                   -8 0.0
                  -8                  7.6 0.0
                  -8                  7.2 0.0
                  -8                  6.8 0.0
                  -8                  6.4 0.0
                  -8                    6 0.0
                  -8                  5.6 0.0
                  -8                  5.2 0.0
                  -8                  4.8 0.0
                  -8                  4.4 0.0
                  -8                    4 0.0
                  -8                  3.6 0.0
                  -8                  3.2 0.0
                  -8                  2.8 0.0
                  -8                  2.4 0.0
                  -8                    2 0.0
                  -8                  1.6 0.0
                  -8                  1.2 0.0
                  -8                  0.8 0.0
                  -8                  0.4 0.0
                  -8                    0 0.0
                  -8                 -0.4 0.0
                  -8                 -0.8 0.0
                  -8                 -1.2 0.0
                  -8                 -1.6 0.0
                  -8                   -2 0.0
                  -8                 -2.4 0.0
                  -8                 -2.8 0.0
                  -8                 -3.2 0.0
                  -8                 -3.6 0.0
                  -8                   -4 0.0
                  -8                 -4.4 0.0
                  -8                 -4.8 0.0
                  -8                 -5.2 0.0
                  -8                 -5.6 0.0
                  -8                   -6 0.0
                  -8                 -6.4 0.0
                  -8                 -6.8 0.0
                  -8                 -7.2 0.0
                  -8                 -7.6 0.0
                   8                 -7.6 0.0
                   8                 -7.2 0.0
                   8                 -6.8 0.0
                   8                 -6.4 0.0
                   8                   -6 0.0
                   8                 -5.6 0.0
                   8                 -5.2 0.0
                   8                 -4.8 0.0
                   8                 -4.4 0.0
                   8                   -4 0.0
                   8                 -3.6 0.0
                   8                 -3.2 0.0
                   8                 -2.8 0.0
                   8                 -2.4 0.0
                   8                   -2 0.0
                   8                 -1.6 0.0
                   8                 -1.2 0.0
                   8                 -0.8 0.0
                   8                 -0.4 0.0
                   8                    0 0.0
                   8                  0.4 0.0
                   8                  0.8 0.0
                   8                  1.2 0.0
                   8                  1.6 0.0
                   8                    2 0.0
                   8                  2.4 0.0
                   8                  2.8 0.0
                   8                  3.2 0.0
                   8                  3.6 0.0
                   8                    4 0.0
                   8                  4.4 0.0
                   8                  4.8 0.0
                   8                  5.2 0.0
                   8                  5.6 0.0
                   8                    6 0.0
                   8                  6.4 0.0
                   8                  6.8 0.0
                   8                  7.2 0.0
                   8                  7.6 0.0
                 7.6                    8 0.0
                 7.2                    8 0.0
                 6.8                    8 0.0
                 6.4                    8 0.0
                   6                    8 0.0
                 5.6                    8 0.0
                 5.2                    8 0.0
                 4.8                    8 0.0
                 4.4                    8 0.0
                   4                    8 0.0
                 3.6                    8 0.0
                 3.2                    8 0.0
                 2.8                    8 0.0
                 2.4                    8 0.0
                   2                    8 0.0
                 1.6                    8 0.0
                 1.2                    8 0.0
                 0.8                    8 0.0
                 0.4                    8 0.0
                   0                    8 0.0
                -0.4                    8 0.0
                -0.8                    8 0.0
                -1.2                    8 0.0
                -1.6                    8 0.0
                  -2                    8 0.0
                -2.4                    8 0.0
                -2.8                    8 0.0
                -3.2                    8 0.0
                -3.6                    8 0.0
                  -4                    8 0.0
                -4.4                    8 0.0
                -4.8                    8 0.0
                -5.2                    8 0.0
                -5.6                    8 0.0
                  -6                    8 0.0
                -6.4                    8 0.0
                -6.8                    8 0.0
                -7.2                    8 0.0
                -7.6                    8 0.0
             7.65165              3.39378 0.0
             7.67408             -3.43689 0.0
            -7.65088              3.38158 0.0
            -7.64564             -3.39956 0.0
             2.98791             -7.69324 0.0
            -2.99455              7.65823 0.0
                  -3             -7.65359 0.0
             3.03694              7.65779 0.0
            -7.66535              1.41813 0.0
             7.66614             -1.40167 0.0
              7.6703               1.3946 0.0
            -7.65359                 -1.4 0.0
             -1.0043              7.65786 0.0
            0.993014             -7.65844 0.0
                  -1             -7.65359 0.0
             1.03052              7.59158 0.0
            -4.55053              7.65443 0.0
             4.60754             -7.66126 0.0
                 4.6              7.65359 0.0
                -4.6             -7.65359 0.0
            -7.65311             -4.99699 0.0
             7.65457               4.9978 0.0
            -7.65184              4.99965 0.0
              7.6684             -4.99906 0.0
            -7.68169             0.170873 0.0
[...]
POINT_DATA 3517
SCALARS rho double 1
LOOKUP_TABLE default
    1.47639999999995
   0.999999999999959
    1.47639999999998
   0.999999999999912
    1.00000007459574
   0.999999791677749
    1.00000240060692
    0.99997754866518
    1.00019987472869
   0.998463345077801
    1.01252436044172
   0.912416079981629
    1.55441261037571
    1.64969767621028
    1.65711535347719
    1.69683698522168
    1.75162274303499
    1.81384631132727
    1.84144029034398
    1.84699225279278
    1.84664980408172
    1.82684886037156
    1.78154975703918
    1.72889758612928
    1.68684688237934
    1.67343731761566
    1.56008435212031
   0.872926026411834
    1.01987137301792
   0.997722062410546
    1.00027158572447
   0.999971285136077
     1.0000035574681
   0.999999567651006
    1.47639999999988
    1.47639999999995
    1.47639999999988
    1.47639999999995
    1.47639999999987
    1.47640000000107
    1.47639999998836
    1.47640000006604
    1.47639999983614
     1.4764000021886
    1.47639994595372
    1.47640024536887
    1.47640704708645
    1.47628465840495
    1.47689853720727
    1.48225230074527
    1.52442880175246
    1.52603438594466
    1.52807617355658
    1.43835841975531
   0.974876465831002
    1.00379042030194
   0.999664597810811
    1.00000601416667
      1.000002715522
   0.999999659243616
    1.00000001811742
    1.00000000008312
   0.999999999938847
    1.00000000000287
   0.999999999999989
   0.999999999999982
                   1
   0.999999999999993
   0.999999999999997
    0.99999999999998
   0.999999999999998
                   1
   0.999999999999994
              1.4764
              1.4764
              1.4764
              1.4764
              1.4764
              1.4764
              1.4764
              1.4764
              1.4764
              1.4764
              1.4764
              1.4764
              1.4764
              1.4764
              1.4764
              1.4764
              1.4764
              1.4764
              1.4764
              1.4764
              1.4764
              1.4764
              1.4764
              1.4764
              1.4764
              1.4764
              1.4764
              1.4764
              1.4764
              1.4764
              1.4764
              1.4764
              1.4764
              1.4764
              1.4764
              1.4764
              1.4764
              1.4764
              1.4764
   0.999999999999963
   0.999999999999991
   0.999999999999997
   0.999999999999999
                   1
                   1
                   1
                   1
   0.999999999999999
   0.999999999999999
                   1
                   1
    1.00000000000001
                   1
   0.999999999999995
                   1
                   1
   0.999999999999998
   0.999999999999997
                   1
                   1
   0.999999999999999
   0.999999999999999
   0.999999999999989
                   1
   0.999999999999991
   0.999999999999997
                   1
                   1
                   1
                   1
   0.999999999999997
                   1
                   1
                   1
                   1
    1.00000000000001
    1.00000000000001
    0.99999999999999
   0.999999999999959
   0.999999999999987
   0.999999999999978
   0.999999999999993
   0.999999999999994
                   1
    1.00000000000001
   0.999999999999988
    1.00000000000005
     1.0000000000019
   0.999999999949134
    1.00000000032845
    1.00000000673598
   0.999999826633198
    1.00000146192862
    1.00000128141547
   0.999834576289576
    1.00249612674813
   0.978590014217865
     1.1362738203074
    1.36057163444596
    1.42526476326519
    1.36765759558331
    1.43029708769982
    1.47843394597172
    1.47643819769477
    1.47638726744319
    1.47640165062512
    1.47639982214162
    1.47640001608779
    1.47639999879314
    1.47640000007342
    1.47639999999684
     1.4764000000004
    1.47639999999997
              1.4764
    1.47639999999993
    1.47639999999994
    1.47639999999998
                   1
                   1
              1.4764
              1.4764
   0.999999994993868
    1.47640398295741
    1.47639667486314
   0.999999997507396
              1.4764
   0.999999999999999
                   1
              1.4764
    1.44664986326583
   0.999883568448201
    1.54448801312396
   0.999479637278055
    1.47640000039271
    1.00000000000001
    1.00000000000001
    1.47639999982869
              1.4764
   0.999999999999999
              1.4764
                   1
              1.4764
                   1
    1.47639999999992
   0.999999999999999
   0.999999999999998
    1.47639999999993
              1.4764
              1.4764
   0.999999999999999
                   1
    1.05628830423416
   0.999985989212561
    1.37258714526706
    1.47949149568016
    1.47419515710379
   0.999995120683911
              1.4764
   0.999999999999998
              1.4764
                   1
              1.4764
   0.999999999999999
    1.47640004504642
    1.00000000000134
    1.47640001357108
   0.999999999996323
              1.4764
                   1
              1.4764
   0.999999999999999
    1.47639999999997
   0.999999999999998
   0.999999999999999
              1.4764
              1.4764
                   1
              1.4764
                   1
              1.4764
   0.999999999999994
   0.999999999999998
    1.47640000000001
    0.99322878114899
    1.00629115573603
   0.999439170616076
   0.998992164998386
    1.00012326270304
    1.00019494687396
   0.998518409053927
    1.00019428756731
   0.999954453431976
     1.0000775406766
    1.00000192909615
   0.999962581103503
    1.00023424038727
    1.00008982381689
   0.998916383479785
    1.00018473958315
   0.999275974567157
    0.99996729188999
    1.00006478598679
   0.999999242283555
    0.99996877707696
    1.00000274918354
    1.00000290858792
   0.999999467029725
   0.999999632477727
    1.00000104637349
    1.00000009471216
   0.999999784646827
    1.00000000252389
    1.00000005125969
   0.999999993810745
    1.00000001099719
    1.00000000005356
   0.999999997206198
    1.00000000020224
    1.00000000019645
   0.999999999974344
   0.999999999978886
    1.00000002291794
    1.00000000000223
    1.00000000000427
   0.999999999999772
   0.999999999998977
   0.999999999921842
    1.00000000000005
    1.00000000000008
   0.999999999999995
   0.999999999999999
    1.00000000000002
                   1
   0.999999999999999
                   1
                   1
   0.999999999999999
                   1
   0.999999999999999
   0.999999999999999
                   1
    1.00000000001832
   0.999999999999999
                   1
   0.999999999999999
                   1
                   1
                   1
   0.999999999999999
                   1
   0.999999999999999
                   1
                   1
   0.999999999999999
                   1
   0.999999999999999
                   1
                   1
                   1
                   1
                   1
                   1
                   1
   0.999999999999999
                   1
                   1
   0.999999999999955
   0.999999999999968
     1.0000000000005
    1.00000000000031
   0.999999999996148
   0.999999999997855
     1.0000000000147
    1.00000000000028
    1.00000000001029
    1.00000000005401
                   1
   0.999999999929698
   0.999999998909164
    1.00000000100508
    1.00000000257077
   0.999999992232122
    1.00000006877052
    1.00000000034036
    1.00000001077984
   0.999999694919138
    1.00000010299547
    1.00000280950818
   0.999989286774786
   0.999992474429608
     1.0001603156858
   0.999874619549961
   0.998435514285251
    1.00197732204642
    1.01243904002502
   0.981995135964321
   0.917777879205201
    1.10086923577891
    1.37407543855797
     1.5347603853697
    1.52233082762293
     1.4777943546322
    1.49371567217638
    1.48617421827752
    1.51377109467772
     1.5238262890833
    1.54355784420022
     1.5306511938088
    1.52619703308353
    1.51436969857106
    1.49814042147058
    1.48051719580289
    1.47420472204292
     1.4748726445721
    1.47650552256887
    1.47667286209289
    1.47638704327975
    1.47635972992224
    1.47640522520262
    1.47640483300393
     1.4763985046265
    1.47640474415898
    1.47639972049715
    1.47639768114878
    1.47640032554127
    1.47639982311992
    1.47639996290591
    1.47640016981646
    1.47639998518592
    1.47640000194523
    1.47640000244293
    1.47639999099164
    1.47639969436692
    1.47640000009082
    1.47640000355807
    1.51980777023893
    1.47636000432838
    1.48820311926907
   0.998887607930953
    1.47639999994792
    1.47639999799023
     1.4764000001245
    1.47640000014405
    1.47640000923209
    1.47639999995139
    1.47640000016336
    1.47639999999516
    1.47639999998298
    1.47639999974016
    1.47640000011196
    1.47639999996901
    1.47639999918237
    1.47640000003853
    1.47640000001606
    1.47640000362427
    1.47639999981982
    1.47639999484167
    1.47639999349425
    1.47640000060619
    1.47639999320884
    1.47640006379552
    1.47640003666276
    1.47639952187103
    1.47640002329748
    1.47640109506496
    1.47639880207324
    1.47640264876263
    1.47641153882608
    1.47639809858852
    1.47640000009994
    1.47640819604229
    1.47639906793774
    1.47640142164684
     1.4763998338563
    1.47634147070346
    1.47640040771943
    1.47640002948638
    1.47639863839056
    1.47640025062332
   0.999999990337361
    1.47639999998282
    1.47640458132972
    1.48599762282353
    1.47640964045465
    1.47639995206869
    1.00000005718725
     1.4763341313183
    1.47639050058544
    1.00030382786407
                   1
    1.50927573591735
    1.47640473539926
    1.00000000004471
    1.47649679153857
    1.47634941735269
   0.981242149254683
    1.47639997610142
    1.47639997166227
    1.47640000425014
    1.47640000124177
    1.47639999963156
    1.47640000014953
    1.47639999857677
     1.4764000001227
    1.47639999957195
    1.47668606211313
    1.47668785912101
   0.999999999999996
    1.47640000005876
    1.47639999999864
    1.47639999875319
    1.47640000007163
    1.47476869962142
    1.47408137047914
    1.47613576608642
    1.47639910092079
    1.47639999968262
     1.4764000000106
    1.48324695964759
    1.49347182079242
     1.4763999999956
    1.51459220379229
    1.52612295252498
     1.4763999998964
    1.47639999999794
    1.52857789892287
    1.52416713111149
    1.52889641473278
    1.00937709401635
    1.48288609197816
    1.47700341395731
    1.50709493559046
     1.4714977702353
    1.48717072245188
    1.48363283090461
    1.47511701308444
    1.51298842201239
    1.48864712730202
     1.5341917277336
    1.48371200594039
    1.52756254509246
    1.49469251994118
    1.47331363367176
    1.49731913328954
    1.32572020577278
   0.947047768556405
   0.925583028325038
    1.01023783253163
    1.01168074648091
   0.998560955568152
   0.998410744332759
     1.4770772445676
    1.46623031893231
    1.46949179040854
    1.45242557994316
    1.46650190128843
    1.00022672118875
    1.00020222568849
   0.999330517301778
    1.50582111047602
    1.47534330090721
    1.51238986956134
   0.999822056122809
    1.00000585314578
    1.01298933228347
    1.49919800371774
     1.7730324211729
    1.52816987267856
    1.52662535110226
     1.5268107269053
    1.53097885354817
    1.52169602448962
    1.52269123611187
    1.52830980979248
    1.52432993006405
     1.5202018765558
    1.52580543840279
    1.49935696562897
    1.51390336445957
    1.47841009667542
    1.48747676376808
    1.47374748032235
    1.47417710894732
    0.99997601289625
    1.00000156018538
   0.999976614711542
     1.0000023349469
    1.00000618575762
   0.999999262604671
    0.99999980979471
    1.00000007469716
    1.00000016796757
   0.999999978263439
   0.999999990741608
    1.00000000356243
   0.999999995621543
   0.999999999923205
    1.00000000067044
   0.999999999979845
   0.999999999966334
   0.999999999996707
     1.0000000000115
    1.00000000000108
   0.999999999997126
   0.999999999993858
   0.999999999999823
    1.00000000000051
    1.00004298436046
    1.50972738223675
    1.00000000798122
    1.47640000186016
    1.46616852700576
    1.47640000035192
    1.47639998895054
    1.84592560234444
    1.47622848404881
    1.47488393181618
    1.48120616748938
    1.47414161428901
    1.49412154160405
    1.47680707997718
    1.50951509535451
    1.48744802730857
    1.52342517845691
    1.50048292414531
    1.52608328435392
    1.51427715552319
     1.5251524040251
    1.52320710776827
    1.52128776869424
    1.52807748341228
    1.52655185998851
    1.47658582467784
    1.48810037970864
    1.52588768544082
    1.53128736645164
   0.999999999999893
    1.00000000000121
    1.00000000000005
     1.7598575788837
   0.999995792068835
   0.999999913128275
    1.85216368503861
    1.77878230304539
     1.4821237386507
    1.51996210932965
    1.52141518177247
    1.52834259713228
    1.52515117676554
    1.49281379650177
    1.48541324164474
    1.46723940172436
    1.47751818557221
    1.47067890411973
    1.48283221931924
    1.48908380640205
     1.5339728053647
    1.00036627554905
     1.5169309551044
    1.17340502254654
   0.943742885736481
   0.960486285734094
    1.01382556998118
    1.00548540042039
   0.998149975627449
   0.999238896417134
    1.00023191741161
    1.00007436931766
   0.999979866024358
    0.99999510990618
     1.0000011028932
    1.00000009757054
    1.00000355612812
    1.00000367544521
   0.999999738244696
    1.48018555952958
    1.52390942366165
    1.51364298708732
    1.47640000281555
    1.47640003374167
    1.00148321735909
   0.931966485855723
    1.47640000005938
    1.47639999999747
    1.47639999999343
    1.47640000000042
    1.47640000000049
    1.47639999999995
              1.4764
              1.4764
              1.4764
              1.4764
              1.4764
              1.4764
              1.4764
              1.4764
    1.00000000000026
              1.4764
              1.4764
              1.4764
              1.4764
   0.999999160149704
    1.00000008145176
    1.52738591639916
   0.999999999993021
    0.99830970064738
    1.47677087085888
              1.4764
              1.4764
              1.4764
    1.74536064853409
    1.47639995334723
    1.47640013806195
    1.47640000532575
    1.02685289164545
              1.4764
              1.4764
    1.00000007602229
    1.01367494374154
    1.31767989609943
              1.4764
              1.4764
              1.4764
              1.4764
              1.4764
              1.4764
              1.4764
              1.4764
              1.4764
              1.4764
              1.4764
              1.4764
              1.4764
              1.4764
              1.4764
              1.4764
              1.4764
              1.4764
              1.4764
    1.47639999999999
    1.47640000000003
    1.47640000000008
    1.47639999999955
    1.47639999999954
    1.47640000000275
    1.47640000000262
     1.4763999999884
    1.47639999998301
    1.47640000013274
     1.4764000000538
    1.47639999890311
    1.47640000003246
    1.47640000235533
    1.47639999997967
    1.47639999906942
    1.47639999815481
    1.47639999999986
    1.47640000662409
    1.47639994726161
    1.47640011838018
    1.47640014283716
    1.47639860542852
    1.47640168538016
    1.47640953803597
    1.47637398593598
    1.47635661095567
    1.47659701563141
     1.4765691138208
    1.47543602396838
    1.47479208206355
    1.47787690244119
    1.49206247705598
    1.50922084643438
    1.52021586032974
    1.53935800861389
    1.49778775199624
    1.49573084379252
    1.45709988815802
    1.49815287197364
    1.49173583575816
    1.38514412650477
    1.03874289395953
   0.932860493163874
   0.997451206021049
    1.00882428910652
   0.999460421897675
    0.99879715021642
    1.00021848509629
    1.00012618442126
   0.999960131684073
   0.999992484455999
    1.00000416928592
    1.00000012006487
   0.999999756354998
    1.00000002286428
    1.00000000032073
    0.99999999748555
    1.00000000127327
    1.00000000016135
    0.99999999989022
    0.99999999998998
    1.00000000000366
    1.00000000002273
   0.999999999998557
    1.00000000000007
    1.00000000000002
    1.00000000000017
   0.999999999999991
                   1
                   1
                   1
                   1
                   1
                   1
                   1
                   1
                   1
   0.999999999999999
                   1
   0.999999999999999
                   1
   0.999999999999998
                   1
   0.999999999999999
                   1
                   1
                   1
                   1
              1.4764
    1.47636257454032
                   1
                   1
                   1
    1.47640019092122
    1.49045249619452
    1.48679588135179
    1.00343977038561
   0.999999999999999
                   1
   0.999999999999999
                   1
                   1
                   1
   0.999999999999999
   0.999999999999999
   0.999999999999999
                   1
    1.53475887448963
    1.33785532550647
   0.999999999999999
    1.47640021369955
    1.47513069116719
                   1
   0.999999999999999
                   1
                   1
    1.00000007407637
    1.00002940119375
   0.999999999999999
   0.999999999999999
                   1
                   1
                   1
                   1
   0.999999999999999
                   1
   0.999999999999999
                   1
                   1
                   1
   0.999999999999999
                   1
                   1
                   1
   0.999999999999999
                   1
                   1
                   1
                   1
                   1
                   1
   0.999999999999999
                   1
   0.999999999999999
                   1
                   1
                   1
                   1
                   1
   0.999999999999999
   0.999999999999999
   0.999999999999999
                   1
                   1
   0.999999999999999
                   1
                   1
                   1
                   1
   0.999999999999961
                   1
   0.998937536682908
    1.00000000658692
   0.999999833538328
    1.47640000099261
    1.52221881474961
    0.99999999999998
    1.00000000000039
                   1
    1.52771886632666
    1.52554457823931
   0.925909595672663
    1.47640000000206
    1.47641033791473
              1.4764
    1.00033039453848
    1.49538245256064
    1.47640026907649
    1.47639806601676
    1.47639995334277
     1.5062023367085
    1.50132133630496
    1.49655313105183
    1.46791889420138
    1.49178185712483
    1.50502728290331
    1.53748810273887
    1.52308808846726
     1.5205258862641
    1.00000164602391
   0.999999559491242
    1.52500135325862
    1.00000000007211
    1.00000000134824
    1.47640117934078
    1.47640854938429
    1.47640224592816
    1.47667936810413
    1.49970637594259
   0.999999854381753
    1.00000000030015
    1.47641247645615
    1.52717845222045
   0.999952944171458
                   1
    1.47640000527216
    1.00000000000039
    1.00000000000001
                   1
    1.47655718171946
   0.980320091978503
                   1
                   1
    1.48793126310552
    1.00000312778479
    0.99999885523459
   0.999999957728724
    1.00000012976388
              1.4764
    1.47640000001837
                   1
    1.00000000000037
   0.999999999999999
    1.47639999999999
                   1
                   1
                   1
   0.999998174971186
    1.00000010958303
   0.999999988052555
    0.99999999504756
   0.999999238876233
    1.00000000084268
                   1
    1.47640000000003
    1.47640000005692