TITLE="Triangular mesh"
VARIABLES= "x" "y" "rho" "vx" "vy" "E" "p"
ZONE T="none",N=3517,E=6844,ET=TRIANGLE, F=FEPOINT
                  -8	                  -8	    1.47639999999995	    0.33033053373072	-4.78224832998752e-15	    1.73719999999993	   0.662659559739876
                   8	                  -8	   0.999999999999959	7.26525857193607e-14	-3.11232382983816e-14	   0.999999999999918	   0.399999999999967
                  -8	                   8	    1.47639999999998	   0.330330533730704	6.88090841742851e-16	    1.73719999999997	   0.662659559739894
                   8	                   8	   0.999999999999912	3.96596042654671e-14	3.84047222692046e-14	   0.999999999999901	    0.39999999999996
                 0.5	                   0	    1.00000007459574	-4.30322559416732e-09	2.96597782833421e-08	    1.00000010443367	    0.40000004177347
            0.489074	            0.103956	   0.999999791677749	3.47863310023927e-09	 1.4594460112434e-07	   0.999999708349076	   0.399999883339626
            0.456773	            0.203368	    1.00000240060692	2.09764847676059e-07	-1.59972887979862e-06	     1.0000033608439	   0.400001344337038
            0.404508	            0.293893	    0.99997754866518	-4.13193063809777e-06	1.42969801076486e-05	    0.99996857585024	   0.399987430295802
            0.334565	            0.371572	    1.00019987472869	6.87083452514135e-05	-0.000118375900316583	    1.00027939770303	   0.400111755333725
                0.25	            0.433013	   0.998463345077801	-0.000780044805675655	 0.00077636544735816	   0.997848191040453	   0.399139034545783
            0.154508	            0.475528	    1.01252436044172	 0.00785722001294368	-0.00390371725428471	    1.01764188669179	   0.407041166881455
           0.0522642	            0.497261	   0.912416079981629	 -0.0770451985893575	  0.0146825840456016	   0.866157504249629	     0.3453404487331
          -0.0522642	            0.497261	    1.55441261037571	   0.374480983875111	  0.0447286222074331	     1.9985732677667	   0.755210416469165
           -0.154508	            0.475528	    1.64969767621028	   0.435575016950953	   0.145431665797265	    2.22029734597858	   0.818542620568831
               -0.25	            0.433013	    1.65711535347719	   0.337716280625096	   0.195454996641016	     2.1782286449549	   0.820830657605198
           -0.334565	            0.371572	    1.69683698522168	     0.2495011274593	   0.224831633341939	    2.21117632846548	   0.846189863223054
           -0.404508	            0.293893	    1.75162274303499	   0.152982178850218	   0.208815925707943	    2.27075655814993	   0.884828202768182
           -0.456773	            0.203368	    1.81384631132727	  0.0761050638125967	   0.167114050413479	    2.34900515597979	   0.927369814227749
           -0.489074	            0.103956	    1.84144029034398	  0.0175017904266911	  0.0814071340107195	    2.37414237551195	   0.947103449211093
                -0.5	         2.83277e-16	    1.84699225279278	 0.00391806595723469	-0.00412863009989451	     2.3810464871244	   0.952406627511933
           -0.489074	           -0.103956	    1.84664980408172	   0.020746828979651	 -0.0883648846059111	    2.38782567330365	   0.952087439644068
           -0.456773	           -0.203368	    1.82684886037156	  0.0765412036904122	  -0.167308112325675	     2.3721478768616	   0.936491179238727
           -0.404508	           -0.293893	    1.78154975703918	   0.150301553744944	  -0.206411390532478	    2.32273889402713	   0.905865495915835
           -0.334565	           -0.371572	    1.72889758612928	   0.246172584894268	  -0.221885999457275	    2.26882736700643	   0.869552482327375
               -0.25	           -0.433013	    1.68684688237934	   0.337205560449006	  -0.197821760655495	    2.22920775466122	   0.840119215841666
           -0.154508	           -0.475528	    1.67343731761566	   0.435394278413507	  -0.147337563520313	    2.25516537855882	   0.831354543722244
          -0.0522642	           -0.497261	    1.56008435212031	    0.35348261585926	 -0.0430712683063174	    1.98520471119584	   0.754516555935744
           0.0522642	           -0.497261	   0.872926026411834	  -0.107736101799439	 -0.0138629785548696	    0.81397189072632	   0.323528781841083
            0.154508	           -0.475528	    1.01987137301792	  0.0123826425267823	 0.00503103370886634	    1.02729780692738	   0.410882684574795
                0.25	           -0.433013	   0.997722062410546	 -0.0013477421502875	-0.00102764180633778	   0.996795155653601	   0.398717489078779
            0.334565	           -0.371572	    1.00027158572447	0.000116353498718304	0.000148998939396793	    1.00038026188222	   0.400152097603182
            0.404508	           -0.293893	   0.999971285136077	-9.3256982219031e-06	-1.91105459512745e-05	    0.99995980050453	   0.399983920111378
            0.456773	           -0.203368	     1.0000035574681	6.51098766369761e-07	2.38995870794143e-06	    1.00000498074606	   0.400001992297195
            0.489074	           -0.103956	   0.999999567651006	-1.8016923850345e-08	-3.0359682468764e-07	   0.999999394701868	   0.399999757880729
                -7.6	                  -8	    1.47639999999988	    0.33033053373071	-7.35724190576867e-14	    1.73719999999986	   0.662659559739851
                -7.2	                  -8	    1.47639999999995	    0.33033053373069	-8.65073923887941e-15	    1.73719999999991	   0.662659559739874
                -6.8	                  -8	    1.47639999999988	   0.330330533730701	-4.71340666420964e-14	    1.73719999999986	   0.662659559739854
                -6.4	                  -8	    1.47639999999995	   0.330330533730685	-3.45817062232921e-14	     1.7371999999999	   0.662659559739871
                  -6	                  -8	    1.47639999999987	   0.330330533730726	-1.38818999901724e-14	    1.73719999999981	   0.662659559739829
                -5.6	                  -8	    1.47640000000107	   0.330330533729995	-1.06300078350146e-14	    1.73720000000138	   0.662659559740574
                -5.2	                  -8	    1.47639999998836	   0.330330533737937	-3.54593545688401e-12	     1.7371999999846	   0.662659559732589
                -4.8	                  -8	    1.47640000006604	   0.330330533682746	  8.721795043527e-11	    1.73720000007906	   0.662659559779443
                -4.4	                  -8	    1.47639999983614	   0.330330533749991	-1.2238093586891e-09	    1.73719999996246	   0.662659559724704
                  -4	                  -8	     1.4764000021886	   0.330330534805103	1.31919268366259e-08	     1.7371999991986	    0.66265955916199
                -3.6	                  -8	    1.47639994595372	   0.330330534446203	-1.10799621796014e-07	    1.73719996408007	   0.662659546411837
                -3.2	                  -8	    1.47640024536887	   0.330330515350022	7.68939783871791e-07	    1.73720052356145	    0.66265976739517
                -2.8	                  -8	    1.47640704708645	   0.330329171227448	-4.66614498797933e-06	    1.73719840577539	   0.662659034048323
                -2.4	                  -8	    1.47628465840495	   0.330354859001171	3.98822431069806e-05	    1.73718861928864	    0.66265277898285
                  -2	                  -8	    1.47689853720727	   0.330297678985669	-0.000550429517796145	    1.73703230634583	   0.662587924032646
                -1.6	                  -8	    1.48225230074527	    0.32680916614462	 0.00712187889296587	    1.74708140754698	   0.667155363259487
                -1.2	                  -8	    1.52442880175246	   0.310617925631879	-0.00712691514577754	    1.80595806955738	   0.692951297830029
                -0.8	                  -8	    1.52603438594466	   0.284783008514027	 -0.0238896738914519	    1.83243147929978	   0.708045711700538
                -0.4	                  -8	    1.52807617355658	   0.309844115647353	  0.0790074333035277	    1.89473169532186	   0.726644880208844
                   0	                  -8	    1.43835841975531	   0.279450634156353	  0.0617882226867887	    1.72418064099805	   0.666108941790469
                 0.4	                  -8	   0.974876465831002	 -0.0313138049818171	  0.0204683269252332	   0.957756729027496	   0.382829822364416
                 0.8	                  -8	    1.00379042030194	 0.00290881916497125	-0.00277078241152173	    1.00517352409456	    0.40206616971069
                 1.2	                  -8	   0.999664597810811	-0.000233991050750136	0.000245027734770933	   0.999530497259714	   0.399812175953505
                 1.6	                  -8	    1.00000601416667	1.00268002472684e-06	-1.29482573898696e-05	    1.00000861436857	   0.400003445713694
                   2	                  -8	      1.000002715522	2.38290859711519e-06	6.83399191841547e-08	    1.00000379688482	   0.400001518752792
                 2.4	                  -8	   0.999999659243616	-2.84771651457771e-07	8.32943480811591e-08	   0.999999523211556	   0.399999809284605
                 2.8	                  -8	    1.00000001811742	1.36566926209478e-08	-9.19028975118891e-09	    1.00000002534567	   0.400000010138266
                 3.2	                  -8	    1.00000000008312	 1.7291041049664e-10	 4.1107019125135e-10	    1.00000000011708	   0.400000000046833
                 3.6	                  -8	   0.999999999938847	-5.26645770671518e-11	-2.09067885747412e-12	   0.999999999914376	    0.39999999996575
                   4	                  -8	    1.00000000000287	2.28881060805941e-12	-1.14646130177032e-12	    1.00000000000402	   0.400000000001606
                 4.4	                  -8	   0.999999999999989	3.56282273921602e-15	7.33279915122031e-14	   0.999999999999987	   0.399999999999995
                 4.8	                  -8	   0.999999999999982	 1.2516437911298e-14	-2.85105557252627e-14	   0.999999999999959	   0.399999999999984
                 5.2	                  -8	                   1	-1.16860261187698e-14	-2.2015685127222e-14	   0.999999999999963	   0.399999999999985
                 5.6	                  -8	   0.999999999999993	9.65941930243889e-15	-1.02276718838732e-14	   0.999999999999964	   0.399999999999985
                   6	                  -8	   0.999999999999997	-1.15964858142507e-14	-2.79922964422993e-14	   0.999999999999957	   0.399999999999983
                 6.4	                  -8	    0.99999999999998	-7.62487279820062e-15	-8.26187871235051e-15	   0.999999999999964	   0.399999999999986
                 6.8	                  -8	   0.999999999999998	-8.05355952143634e-15	4.69606514413664e-15	   0.999999999999995	   0.399999999999998
                 7.2	                  -8	                   1	-7.0782422137253e-15	1.73991090915232e-14	    1.00000000000002	   0.400000000000007
                 7.6	                  -8	   0.999999999999994	3.65877928622676e-14	1.16652676223417e-14	                   1	   0.400000000000001
                  -8	                 7.6	              1.4764	     0.3303305337307	-5.21367495699711e-15	              1.7372	   0.662659559739909
                  -8	                 7.2	              1.4764	   0.330330533730697	1.71248951310409e-15	              1.7372	   0.662659559739907
                  -8	                 6.8	              1.4764	   0.330330533730697	-2.9148672327428e-15	              1.7372	   0.662659559739908
                  -8	                 6.4	              1.4764	   0.330330533730696	-9.82902553416972e-16	              1.7372	   0.662659559739908
                  -8	                   6	              1.4764	   0.330330533730697	-1.31868435152122e-15	              1.7372	   0.662659559739907
                  -8	                 5.6	              1.4764	   0.330330533730696	2.05199829414845e-15	              1.7372	   0.662659559739908
                  -8	                 5.2	              1.4764	   0.330330533730692	4.77575773888369e-15	              1.7372	   0.662659559739908
                  -8	                 4.8	              1.4764	   0.330330533730694	 2.5537760382886e-16	              1.7372	   0.662659559739908
                  -8	                 4.4	              1.4764	   0.330330533730699	-4.16676495140416e-16	              1.7372	   0.662659559739907
                  -8	                   4	              1.4764	   0.330330533730693	-2.22385461861851e-15	              1.7372	   0.662659559739908
                  -8	                 3.6	              1.4764	   0.330330533730699	3.50790432970451e-15	              1.7372	   0.662659559739907
                  -8	                 3.2	              1.4764	   0.330330533730698	-3.55858891106142e-15	              1.7372	   0.662659559739908
                  -8	                 2.8	              1.4764	   0.330330533730697	7.74698673537926e-15	              1.7372	   0.662659559739908
                  -8	                 2.4	              1.4764	   0.330330533730697	-5.6291578607991e-15	              1.7372	   0.662659559739908
                  -8	                   2	              1.4764	   0.330330533730694	 2.1290871835783e-15	              1.7372	   0.662659559739908
                  -8	                 1.6	              1.4764	   0.330330533730693	-3.19128675682772e-15	              1.7372	   0.662659559739908
                  -8	                 1.2	              1.4764	   0.330330533730694	1.22057356456885e-15	              1.7372	   0.662659559739908
                  -8	                 0.8	              1.4764	   0.330330533730696	-2.34472868378694e-15	              1.7372	   0.662659559739908
                  -8	                 0.4	              1.4764	   0.330330533730699	2.57832785601375e-15	              1.7372	   0.662659559739908
                  -8	                   0	              1.4764	   0.330330533730694	-1.28959679505676e-15	              1.7372	   0.662659559739908
                  -8	                -0.4	              1.4764	   0.330330533730693	-5.33776362305455e-15	              1.7372	   0.662659559739909
                  -8	                -0.8	              1.4764	   0.330330533730699	2.22787078387282e-15	              1.7372	   0.662659559739908
                  -8	                -1.2	              1.4764	   0.330330533730696	5.54004156206993e-16	              1.7372	   0.662659559739907
                  -8	                -1.6	              1.4764	   0.330330533730702	8.98636746397401e-16	              1.7372	   0.662659559739907
                  -8	                  -2	              1.4764	   0.330330533730693	 -3.235240111773e-15	              1.7372	   0.662659559739909
                  -8	                -2.4	              1.4764	   0.330330533730695	4.53981737308015e-15	              1.7372	   0.662659559739909
                  -8	                -2.8	              1.4764	   0.330330533730698	-8.63976744367176e-16	              1.7372	   0.662659559739908
                  -8	                -3.2	              1.4764	   0.330330533730695	-3.21652351189099e-15	              1.7372	   0.662659559739908
                  -8	                -3.6	              1.4764	   0.330330533730694	-2.82710644039675e-15	              1.7372	   0.662659559739908
                  -8	                  -4	              1.4764	     0.3303305337307	3.52141218236365e-15	              1.7372	   0.662659559739906
                  -8	                -4.4	              1.4764	   0.330330533730695	1.15341632927886e-15	              1.7372	   0.662659559739907
                  -8	                -4.8	              1.4764	   0.330330533730693	 3.2738431073901e-15	              1.7372	   0.662659559739907
                  -8	                -5.2	              1.4764	   0.330330533730692	-5.49847312557431e-15	              1.7372	   0.662659559739908
                  -8	                -5.6	              1.4764	   0.330330533730694	-1.31184924579426e-15	              1.7372	   0.662659559739908
                  -8	                  -6	              1.4764	   0.330330533730698	2.32253120276791e-15	              1.7372	   0.662659559739908
                  -8	                -6.4	              1.4764	   0.330330533730696	-3.32308980591567e-15	              1.7372	   0.662659559739909
                  -8	                -6.8	              1.4764	   0.330330533730695	-4.91591220682477e-15	              1.7372	   0.662659559739907
                  -8	                -7.2	              1.4764	   0.330330533730697	 1.5718482715888e-15	              1.7372	   0.662659559739908
                  -8	                -7.6	              1.4764	   0.330330533730698	-4.93308706560937e-15	              1.7372	   0.662659559739907
                   8	                -7.6	   0.999999999999963	-2.65966448076176e-14	-2.04013789638986e-14	   0.999999999999971	   0.399999999999988
                   8	                -7.2	   0.999999999999991	 3.2268525005143e-14	1.18656324861371e-14	   0.999999999999965	   0.399999999999986
                   8	                -6.8	   0.999999999999997	1.78672240382006e-14	-1.54392243411878e-14	   0.999999999999984	   0.399999999999993
                   8	                -6.4	   0.999999999999999	-1.27913489406159e-14	1.06616677532202e-14	    1.00000000000001	   0.400000000000003
                   8	                  -6	                   1	-9.97588815178469e-15	-6.26367123775995e-15	    1.00000000000002	   0.400000000000006
                   8	                -5.6	                   1	-2.56886048072035e-14	6.03421958147326e-15	    1.00000000000001	   0.400000000000003
                   8	                -5.2	                   1	1.00647136959433e-14	1.12871746879905e-15	   0.999999999999997	   0.399999999999999
                   8	                -4.8	                   1	1.00621011199612e-14	-3.66887207274837e-15	                   1	                 0.4
                   8	                -4.4	   0.999999999999999	-1.26287825332831e-14	5.37056310298072e-15	   0.999999999999998	   0.399999999999999
                   8	                  -4	   0.999999999999999	 7.5414602804728e-15	-2.14504663775527e-14	   0.999999999999995	   0.399999999999998
                   8	                -3.6	                   1	-2.05459168869946e-14	-3.5216353821323e-14	    1.00000000000003	   0.400000000000012
                   8	                -3.2	                   1	-5.43019793994331e-14	2.35976872310337e-15	    1.00000000000008	   0.400000000000031
                   8	                -2.8	    1.00000000000001	-3.99166301792881e-14	1.86056060680599e-14	    1.00000000000008	   0.400000000000031
                   8	                -2.4	                   1	-1.91330964103925e-14	 4.8407729877368e-14	    1.00000000000002	   0.400000000000009
                   8	                  -2	   0.999999999999995	1.56167269743837e-14	-1.06751953798409e-14	   0.999999999999992	   0.399999999999997
                   8	                -1.6	                   1	2.97545393226258e-15	 1.9988712372876e-14	    0.99999999999999	   0.399999999999996
                   8	                -1.2	                   1	1.31232511916344e-14	1.62678623284043e-14	   0.999999999999958	   0.399999999999983
                   8	                -0.8	   0.999999999999998	3.53735832148166e-14	-1.54612516030971e-14	   0.999999999999953	   0.399999999999981
                   8	                -0.4	   0.999999999999997	4.69285330673667e-15	-1.66395703259795e-14	   0.999999999999985	   0.399999999999994
                   8	                   0	                   1	-2.29496455426724e-14	2.00239757947307e-16	    1.00000000000002	   0.400000000000009
                   8	                 0.4	                   1	-2.2482445259762e-14	4.54983464216217e-15	    1.00000000000002	   0.400000000000009
                   8	                 0.8	   0.999999999999999	1.20681071357956e-14	1.20097109712749e-15	    0.99999999999999	   0.399999999999996
                   8	                 1.2	   0.999999999999999	1.41195122447978e-14	6.67381880002772e-15	   0.999999999999963	   0.399999999999985
                   8	                 1.6	   0.999999999999989	1.53144800827233e-14	-2.39296345159514e-15	   0.999999999999961	   0.399999999999984
                   8	                   2	                   1	 1.5751571534814e-14	7.06893868806372e-15	   0.999999999999968	   0.399999999999987
                   8	                 2.4	   0.999999999999991	1.99339186865587e-14	-6.32778311573634e-15	   0.999999999999969	   0.399999999999988
                   8	                 2.8	   0.999999999999997	8.18170205981183e-15	-1.66640709625252e-14	   0.999999999999974	    0.39999999999999
                   8	                 3.2	                   1	9.07522609115389e-15	-1.33643867554232e-14	   0.999999999999993	   0.399999999999997
                   8	                 3.6	                   1	-1.11832320710009e-14	-8.54146886522357e-15	                   1	   0.400000000000001
                   8	                   4	                   1	-7.56201071109651e-15	-9.72051042250444e-16	    1.00000000000001	   0.400000000000004
                   8	                 4.4	                   1	-3.02445535075232e-14	2.07873222449985e-14	    1.00000000000001	   0.400000000000004
                   8	                 4.8	   0.999999999999997	1.57767666052856e-14	4.62051217417687e-15	   0.999999999999988	   0.399999999999995
                   8	                 5.2	                   1	2.70372344197134e-14	2.33141192263234e-15	   0.999999999999972	   0.399999999999989
                   8	                 5.6	                   1	1.30819320382999e-14	-3.05244672633696e-14	   0.999999999999979	   0.399999999999992
                   8	                   6	                   1	-1.7178004874193e-14	-8.47402861723529e-15	    1.00000000000002	   0.400000000000006
                   8	                 6.4	                   1	-3.41937839876634e-14	 -2.053268694871e-14	    1.00000000000006	   0.400000000000025
                   8	                 6.8	    1.00000000000001	-3.24816124815216e-14	 5.6940264351329e-15	    1.00000000000008	   0.400000000000031
                   8	                 7.2	    1.00000000000001	-1.83183891654345e-14	1.26466424788961e-15	    1.00000000000005	   0.400000000000018
                   8	                 7.6	    0.99999999999999	-1.87733744637645e-14	4.04598717278734e-14	   0.999999999999989	   0.399999999999996
                 7.6	                   8	   0.999999999999959	3.71465204758375e-14	8.67076003064749e-15	   0.999999999999944	   0.399999999999978
                 7.2	                   8	   0.999999999999987	2.20290522556262e-14	3.94753781946355e-14	   0.999999999999961	   0.399999999999984
                 6.8	                   8	   0.999999999999978	-2.33734039987673e-15	  1.162897843981e-16	   0.999999999999973	   0.399999999999989
                 6.4	                   8	   0.999999999999993	-1.41870104768058e-14	 2.4046773621979e-15	   0.999999999999962	   0.399999999999985
                   6	                   8	   0.999999999999994	5.29096618499477e-15	5.39909811009717e-14	   0.999999999999964	   0.399999999999985
                 5.6	                   8	                   1	4.83513471042376e-14	-3.85298662125601e-14	    1.00000000000002	   0.400000000000009
                 5.2	                   8	    1.00000000000001	-2.26396041171732e-14	-5.40801243400208e-14	    1.00000000000005	   0.400000000000019
                 4.8	                   8	   0.999999999999988	-2.57667008192616e-14	1.29598114540917e-14	   0.999999999999984	   0.399999999999993
                 4.4	                   8	    1.00000000000005	 7.6042321305504e-14	-2.56264921788159e-14	    1.00000000000005	    0.40000000000002
                   4	                   8	     1.0000000000019	1.43551178270979e-12	1.13787048076993e-12	    1.00000000000267	   0.400000000001067
                 3.6	                   8	   0.999999999949134	-4.6080676905529e-11	-1.51070350861024e-11	   0.999999999928785	   0.399999999971514
                 3.2	                   8	    1.00000000032845	3.41183311807157e-10	-1.00372029413268e-10	    1.00000000046011	   0.400000000184044
                 2.8	                   8	    1.00000000673598	4.34211161188816e-09	5.18484555532693e-09	    1.00000000942095	   0.400000003768381
                 2.4	                   8	   0.999999826633198	-1.39064486116372e-07	-7.0027366808399e-08	   0.999999757400645	   0.399999902960253
                   2	                   8	    1.00000146192862	1.38597871128026e-06	2.26196065012138e-07	    1.00000204807342	   0.400000819228973
                 1.6	                   8	    1.00000128141547	-2.67394082248135e-06	 6.8805477487964e-06	    1.00000175520644	   0.400000702071679
                 1.2	                   8	   0.999834576289576	-0.000105818137101731	-0.000118163026752044	   0.999768722798342	   0.399907484088173
                 0.8	                   8	    1.00249612674813	 0.00178562687185595	 0.00134902384978368	    1.00343560792132	    0.40137323900251
                 0.4	                   8	   0.978590014217865	 -0.0157338275090741	 -0.0113659366425576	    0.97104609865689	   0.388344705084362
                   0	                   8	     1.1362738203074	  0.0897938154415717	  0.0144450255422273	    1.19555813987569	   0.476343498158544
                -0.4	                   8	    1.36057163444596	   0.230865099909591	  0.0646870874058786	    1.58410158308574	   0.617998654460472
                -0.8	                   8	    1.42526476326519	   0.317965048038687	   0.123041978519298	    1.69661936403329	   0.645512876766793
                -1.2	                   8	    1.36765759558331	   0.392456126437577	  0.0534805083717963	    1.59018076868848	   0.593160142270643
                -1.6	                   8	    1.43029708769982	   0.353781739197394	  0.0018643187177696	    1.67478919076472	   0.634111050833102
                  -2	                   8	    1.47843394597172	   0.329215094256854	 0.00209921444486569	     1.7393295386694	    0.66368321588625
                -2.4	                   8	    1.47643819769477	   0.330263586201736	-0.000350221124893169	    1.73737019489441	   0.662739827004377
                -2.8	                   8	    1.47638726744319	   0.330344332765558	3.79304377373948e-05	    1.73717253011438	   0.662646157283002
                -3.2	                   8	    1.47640165062512	    0.33032923674954	-3.32658675266396e-06	    1.73720244343773	   0.662660754103934
                -3.6	                   8	    1.47639982214162	   0.330330648947025	2.44704675673546e-07	    1.73719980357191	    0.66265946257377
                  -4	                   8	    1.47640001608779	   0.330330523620602	-1.41089012626176e-08	    1.73720001668857	   0.662659568036518
                -4.4	                   8	    1.47639999879314	   0.330330534524998	4.90356038549971e-10	    1.73719999866066	   0.662659559075558
                -4.8	                   8	    1.47640000007342	     0.3303305336723	8.16953125565779e-12	    1.73720000008393	    0.66265955978327
                -5.2	                   8	    1.47639999999684	   0.330330533733587	-2.48974654659509e-12	     1.7371999999963	   0.662659559737933
                -5.6	                   8	     1.4764000000004	   0.330330533730464	-2.27305738283997e-15	    1.73720000000053	   0.662659559740158
                  -6	                   8	    1.47639999999997	   0.330330533730706	7.26529506284603e-15	    1.73719999999995	   0.662659559739888
                -6.4	                   8	              1.4764	   0.330330533730686	1.57955663082907e-14	    1.73719999999994	   0.662659559739885
                -6.8	                   8	    1.47639999999993	   0.330330533730684	5.31083173913871e-14	    1.73719999999989	   0.662659559739866
                -7.2	                   8	    1.47639999999994	   0.330330533730689	1.12469919671098e-14	    1.73719999999991	   0.662659559739874
                -7.6	                   8	    1.47639999999998	   0.330330533730691	3.89196830699593e-14	    1.73719999999993	   0.662659559739881
             7.65165	             3.39378	                   1	3.13057145562503e-16	1.16081913078673e-14	   0.999999999999997	   0.399999999999999
             7.67408	            -3.43689	                   1	-5.30476753318298e-15	-1.08103061854679e-14	    1.00000000000003	    0.40000000000001
            -7.65088	             3.38158	              1.4764	   0.330330533730696	3.33154787018345e-15	              1.7372	   0.662659559739907
            -7.64564	            -3.39956	              1.4764	   0.330330533730699	7.15072543934758e-15	              1.7372	   0.662659559739907
             2.98791	            -7.69324	   0.999999994993868	-3.83240175247316e-09	2.98532039108494e-10	   0.999999992991939	   0.399999997196775
            -2.99455	             7.65823	    1.47640398295741	   0.330329213517171	-3.85515265072409e-06	    1.73720933650662	   0.662663464962922
                  -3	            -7.65359	    1.47639667486314	   0.330331674960233	2.47657420908834e-06	    1.73719907669688	   0.662659040352537
             3.03694	             7.65779	   0.999999997507396	-1.92861263496897e-09	1.26803702215059e-10	    0.99999999651101	   0.399999998604404
            -7.66535	             1.41813	              1.4764	   0.330330533730701	6.16286445774486e-15	              1.7372	   0.662659559739908
             7.66614	            -1.40167	   0.999999999999999	1.08260400030147e-14	-5.12012066669603e-15	   0.999999999999994	   0.399999999999997
              7.6703	              1.3946	                   1	8.45445799039513e-15	4.05431163784511e-15	   0.999999999999985	   0.399999999999994
            -7.65359	                -1.4	              1.4764	   0.330330533730691	-2.63907433038048e-15	              1.7372	   0.662659559739908