# vtk DataFile Version 3.0
Triangular mesh
ASCII
DATASET UNSTRUCTURED_GRID
POINTS 3517 double
                  -8                   -8 0.0
                   8                   -8 0.0
                  -8                    8 0.0
                   8                    8 0.0
                 0.5                    0 0.0
            0.489074             0.103956 0.0
            0.456773             0.203368 0.0
            0.404508             0.293893 0.0
            0.334565             0.371572 0.0
                0.25             0.433013 0.0
            0.154508             0.475528 0.0
           0.0522642             0.497261 0.0
          -0.0522642             0.497261 0.0
           -0.154508             0.475528 0.0
               -0.25             0.433013 0.0
           -0.334565             0.371572 0.0
           -0.404508             0.293893 0.0
           -0.456773             0.203368 0.0
           -0.489074             0.103956 0.0
                -0.5          2.83277e-16 0.0
           -0.489074            -0.103956 0.0
           -0.456773            -0.203368 0.0
           -0.404508            -0.293893 0.0
           -0.334565            -0.371572 0.0
               -0.25            -0.433013 0.0
           -0.154508            -0.475528 0.0
          -0.0522642            -0.497261 0.0
           0.0522642            -0.497261 0.0
            0.154508            -0.475528 0.0
                0.25            -0.433013 0.0
            0.334565            -0.371572 0.0
            0.404508            -0.293893 0.0
            0.456773            -0.203368 0.0
            0.489074            -0.103956 0.0
                -7.6                   -8 0.0
                -7.2                   -8 0.0
                -6.8                   -8 0.0
                -6.4                   -8 0.0
                  -6                   -8 0.0
                -5.6                   -8 0.0
                -5.2                   -8 0.0
                -4.8                   -8 0.0
                -4.4                   -8 0.0
                  -4                   -8 0.0
                -3.6                   -8 0.0
                -3.2                   -8 0.0
                -2.8                   -8 0.0
                -2.4                   -8 0.0
                  -2                   -8 0.0
                -1.6                   -8 0.0
                -1.2                   -8 0.0
                -0.8                   -8 0.0
                -0.4                   -8 0.0
                   0                   -8 0.0
                 0.4                   -8 0.0
                 0.8                   -8 0.0
                 1.2                   -8 0.0
                 1.6                   -8 0.0
                   2                   -8 0.0
                 2.4                   -8 0.0
                 2.8                   -8 0.0
                 3.2                   -8 0.0
                 3.6                   -8 0.0
                   4                   -8 0.0
                 4.4                   -8 0.0
                 4.8                   -8 0.0
                 5.2                   -8 0.0
                 5.6                   -8 0.0
                   6                   -8 0.0
                 6.4                   -8 0.0
                 6.8                   -8 0.0
                 7.2                   -8 0.0
                 7.6                   -8 0.0
                  -8                  7.6 0.0
                  -8                  7.2 0.0
                  -8                  6.8 0.0
                  -8                  6.4 0.0
                  -8                    6 0.0
                  -8                  5.6 0.0
                  -8                  5.2 0.0
                  -8                  4.8 0.0
                  -8                  4.4 0.0
                  -8                    4 0.0
                  -8                  3.6 0.0
                  -8                  3.2 0.0
                  -8                  2.8 0.0
                  -8                  2.4 0.0
                  -8                    2 0.0
                  -8                  1.6 0.0
                  -8                  1.2 0.0
                  -8                  0.8 0.0
                  -8                  0.4 0.0
                  -8                    0 0.0
                  -8                 -0.4 0.0
                  -8                 -0.8 0.0
                  -8                 -1.2 0.0
                  -8                 -1.6 0.0
                  -8                   -2 0.0
                  -8                 -2.4 0.0
                  -8                 -2.8 0.0
                  -8                 -3.2 0.0
                  -8                 -3.6 0.0
                  -8                   -4 0.0
                  -8                 -4.4 0.0
                  -8                 -4.8 0.0
                  -8                 -5.2 0.0
                  -8                 -5.6 0.0
                  -8                   -6 0.0
                  -8                 -6.4 0.0
                  -8                 -6.8 0.0
                  -8                 -7.2 0.0
                  -8                 -7.6 0.0
                   8                 -7.6 0.0
                   8                 -7.2 0.0
                   8                 -6.8 0.0
                   8                 -6.4 0.0
                   8                   -6 0.0
                   8                 -5.6 0.0
                   8                 -5.2 0.0
                   8                 -4.8 0.0
                   8                 -4.4 0.0
                   8                   -4 0.0
                   8                 -3.6 0.0
                   8                 -3.2 0.0
                   8                 -2.8 0.0
                   8                 -2.4 0.0
                   8                   -2 0.0
                   8                 -1.6 0.0
                   8                 -1.2 0.0
                   8                 -0.8 0.0
                   8                 -0.4 0.0
                   8                    0 0.0
                   8                  0.4 0.0
                   8                  0.8 0.0
                   8                  1.2 0.0
                   8                  1.6 0.0
                   8                    2 0.0
                   8                  2.4 0.0
                   8                  2.8 0.0
                   8                  3.2 0.0
                   8                  3.6 0.0
                   8                    4 0.0
                   8                  4.4 0.0
                   8                  4.8 0.0
                   8                  5.2 0.0
                   8                  5.6 0.0
                   8                    6 0.0
                   8                  6.4 0.0
                   8                  6.8 0.0
                   8                  7.2 0.0
                   8                  7.6 0.0
                 7.6                    8 0.0
                 7.2                    8 0.0
                 6.8                    8 0.0
                 6.4                    8 0.0
                   6                    8 0.0
                 5.6                    8 0.0
                 5.2                    8 0.0
                 4.8                    8 0.0
                 4.4                    8 0.0
                   4                    8 0.0
                 3.6                    8 0.0
                 3.2                    8 0.0
                 2.8                    8 0.0
                 2.4                    8 0.0
                   2                    8 0.0
                 1.6                    8 0.0
                 1.2                    8 0.0
                 0.8                    8 0.0
                 0.4                    8 0.0
                   0                    8 0.0
                -0.4                    8 0.0
                -0.8                    8 0.0
                -1.2                    8 0.0
                -1.6                    8 0.0
                  -2                    8 0.0
                -2.4                    8 0.0
                -2.8                    8 0.0
                -3.2                    8 0.0
                -3.6                    8 0.0
                  -4                    8 0.0
                -4.4                    8 0.0
                -4.8                    8 0.0
                -5.2                    8 0.0
                -5.6                    8 0.0
                  -6                    8 0.0
                -6.4                    8 0.0
                -6.8                    8 0.0
                -7.2                    8 0.0
                -7.6                    8 0.0
             7.65165              3.39378 0.0
             7.67408             -3.43689 0.0
            -7.65088              3.38158 0.0
            -7.64564             -3.39956 0.0
             2.98791             -7.69324 0.0
            -2.99455              7.65823 0.0
                  -3             -7.65359 0.0
             3.03694              7.65779 0.0
            -7.66535              1.41813 0.0
             7.66614             -1.40167 0.0
              7.6703               1.3946 0.0
            -7.65359                 -1.4 0.0
             -1.0043              7.65786 0.0
            0.993014             -7.65844 0.0
                  -1             -7.65359 0.0
             1.03052              7.59158 0.0
            -4.55053              7.65443 0.0
             4.60754             -7.66126 0.0
                 4.6              7.65359 0.0
                -4.6             -7.65359 0.0
            -7.65311             -4.99699 0.0
             7.65457               4.9978 0.0
            -7.65184              4.99965 0.0
              7.6684             -4.99906 0.0
            -7.68169             0.170873 0.0
[...]
POINT_DATA 3517
SCALARS rho double 1
LOOKUP_TABLE default
    1.47639999999988
   0.999999999999838
    1.47639999999992
   0.999999999999784
    1.26314217327605
    1.21251473065672
    1.25652710424023
    1.25451640731583
    1.23728926954712
     1.2246756267503
    1.22684526460865
    1.24723049802205
    1.28241816974139
    1.35410305696304
    1.43503687515291
    1.51927592619113
    1.60052997989239
    1.66415687595543
    1.69528459860788
    1.70100755603928
    1.69312334827167
    1.65520640848351
    1.59281882819343
    1.51179560715918
    1.42977064622008
    1.35013799252633
    1.28720018970325
    1.24139993015832
    1.23014917991851
    1.23091912752939
    1.24128377237383
    1.25252685526933
     1.2501498488373
    1.21352717598653
    1.47639999999983
    1.47639999999985
    1.47639999999966
    1.47640000000038
    1.47639999999502
    1.47640000001663
    1.47640000026144
    1.47639999718733
    1.47640002214955
    1.47639973881452
    1.47640315500772
    1.47637970605734
    1.47635144291237
    1.47723579319253
    1.49531503000582
      1.533410520099
    1.52112780907315
    1.52999600339969
    1.50504349266431
    1.51095855356001
     1.5401135121509
    1.57475766312919
    1.10972104081095
   0.998102963407524
   0.998980783159796
    1.00018761011388
   0.999974606160804
    1.00000265963766
    0.99999983302054
    1.00000000200051
    1.00000000104388
   0.999999999850904
     1.0000000000095
   0.999999999999922
   0.999999999999938
   0.999999999999983
    0.99999999999997
   0.999999999999948
   0.999999999999894
    1.47639999999998
              1.4764
              1.4764
              1.4764
              1.4764
              1.4764
              1.4764
              1.4764
              1.4764
              1.4764
              1.4764
              1.4764
              1.4764
              1.4764
              1.4764
              1.4764
              1.4764
              1.4764
              1.4764
              1.4764
              1.4764
              1.4764
              1.4764
              1.4764
              1.4764
              1.4764
              1.4764
              1.4764
              1.4764
              1.4764
              1.4764
              1.4764
              1.4764
              1.4764
              1.4764
              1.4764
              1.4764
              1.4764
    1.47639999999996
   0.999999999999832
   0.999999999999976
   0.999999999999996
   0.999999999999999
                   1
                   1
                   1
                   1
                   1
   0.999999999999999
                   1
                   1
    1.00000000000001
                   1
                   1
                   1
                   1
   0.999999999999998
   0.999999999999997
                   1
                   1
   0.999999999999999
   0.999999999999999
   0.999999999999988
                   1
    0.99999999999999
   0.999999999999997
                   1
   0.999999999999999
                   1
                   1
   0.999999999999998
                   1
                   1
                   1
                   1
    1.00000000000001
    1.00000000000001
   0.999999999999937
   0.999999999999819
   0.999999999999887
   0.999999999999886
   0.999999999999981
   0.999999999999985
   0.999999999999934
    1.00000000000621
   0.999999999911157
    1.00000000056012
    1.00000000028307
   0.999999951332819
     1.0000005491487
    0.99999485019173
    1.00004665773206
   0.999551679915454
    1.00446881022092
   0.963170030041211
    1.21877813693047
    1.38192268073937
    1.40274951810582
    1.42059254305494
    1.46350590172432
    1.42454156262536
    1.37648817954765
    1.41040578566121
    1.46712103398433
    1.47742956240432
    1.47640791554585
    1.47639046710025
    1.47640098310702
    1.47639996964201
    1.47639999520099
    1.47640000123943
     1.4763999999513
    1.47640000000063
    1.47640000000004
    1.47639999999987
    1.47639999999985
    1.47639999999989
                   1
                   1
              1.4764
              1.4764
   0.999999120880651
    1.47629340584085
    1.47643471509901
    1.00000118275928
              1.4764
   0.999999999999999
                   1
              1.4764
    1.45053845498038
    1.37340131405373
    1.54094290187865
     1.0354913558514
    1.47640002206947
    1.00000000023547
     1.0000000001861
    1.47640001965161
              1.4764
   0.999999999999998
              1.4764
                   1
              1.4764
                   1
     1.4764000000128
    1.00000000000002
    1.00000000000022
    1.47640000001705
              1.4764
              1.4764
   0.999999999999999
                   1
    1.51846087332118
    1.00695441632778
    1.39662364018028
    1.41865013609696
     1.5095800075089
    1.00003932070256
              1.4764
   0.999999999999998
              1.4764
                   1
              1.4764
   0.999999999999999
    1.47640349123354
    1.00000006577531
    1.47640091022178
    1.00000002626654
              1.4764
                   1
              1.4764
                   1
    1.47639999999984
   0.999999999999939
   0.999999999999999
    1.47639999999996
    1.47639999999999
                   1
              1.4764
                   1
    1.47639999999991
   0.999999999999937
   0.999999999999944
    1.47639999999995
    1.55920132736467
    1.55359708352293
   0.947530860911417
    1.16828394106135
   0.964098154596423
   0.891150508161331
    1.47979040432279
    1.06237550942988
    1.00223875488453
    0.90423237197945
     1.0144567206688
    1.00955845259167
    1.01542532610002
    0.90998082254179
    1.39585770202975
    1.04084651229192
    1.53071308195149
    1.00165407455168
   0.910883550583758
    1.01377890308055
    1.00157903407086
   0.999209080213019
    1.01418159605328
   0.997997395327923
   0.996952597889826
    1.02217332732233
    1.00049858419862
   0.998989472263344
    1.00014992951049
    1.00038801015448
   0.999937115728468
    1.00012927761842
   0.999987186141121
     0.9999640289032
    1.00000485326378
    1.00000262941803
   0.999999553022548
    1.00000116651601
    1.00026426816437
    0.99999988986705
    0.99999953218726
      1.000000045328
    1.00000021745469
    1.00000090083625
   0.999999979486229
   0.999999956088616
    1.00000000480505
    1.00000000876779
   0.999999996108578
   0.999999998990855
   0.999999998346031
     1.0000000002304
    1.00000000022172
   0.999999999958483
   0.999999999985665
   0.999999999975411
    1.00000000000544
   0.999999999998604
    0.99999744904715
   0.999999999999512
    1.00000000000064
   0.999999999989501
    1.00000000000189
    0.99999999999988
   0.999999999999654
    1.00000000000002
    1.00000000000003
   0.999999999999395
    1.00000000000027
   0.999999999999967
    1.00000000000016
   0.999999999999005
   0.999999999999572
    1.00000000000438
   0.999999999991857
     1.0000000000003
    0.99999999999405
    1.00000000013825
    1.00000000002768
   0.999999999377863
   0.999999999676878
    1.00000000309278
    1.00000000327354
   0.999999962411128
   0.999999988614371
    1.00000018636461
    1.00000001249149
   0.999999400652457
    1.00000017781551
    1.00000007065253
   0.999999956889149
   0.999998365378923
    1.00000882609567
    1.00000000002706
    1.00001390780622
   0.999919808130715
   0.999912067909947
    1.00060008476764
    1.00022601005333
   0.997866821336576
   0.999984270083348
    1.00027043539085
   0.999712212575418
    1.01641806209496
   0.989740330006614
    0.90083440813229
    1.10168888617141
    1.42263997930436
    1.54579011102294
    1.48889647226367
     1.4761571572093
    1.46929244417281
    1.47297296805421
    1.47637194019034
    1.47640029770948
    1.47731195992254
    1.47341947796376
    1.48300300975426
    1.49527077942704
     1.5166371427718
    1.52561515390462
    1.53219753374265
    1.52334861712491
    1.52078717645193
    1.52180265780738
    1.52158885166034
    1.52263420620898
    1.52298914926099
    1.52567308192238
    1.52551663732651
    1.51287300605483
    1.49852712118527
    1.48037296688803
    1.47453927030524
    1.47468941363482
    1.47618269824764
    1.47672138615764
    1.47649241886967
    1.47673595968497
    1.47634848466187
    1.47652812742015
    1.47637174796184
    1.47634648489063
     1.4764083057269
    1.47636940802654
    1.47640526242934
    1.47640250712341
    1.47639928015415
     1.4764041737912
    1.47634699897885
    1.47639947580327
    1.47639853203066
      1.523911195565
    1.47394952492385
    1.47743256509127
    1.49363196920243
    1.47640026777212
    1.47639971814243
        1.4764000104
    1.47640036323914
    1.47639847532947
    1.47639993984821
    1.47640008526315
    1.47639999932177
    1.47639994170631
    1.47640027613975
    1.47640018335488
    1.47639858271251
    1.47639989221269
    1.47639997168094
    1.47640038906851
    1.47639810244057
    1.47639840504211
    1.47640884683141
    1.47640390861147
    1.47639925742948
    1.47640202338231
    1.47639430110418
    1.47640222420246
    1.47636485486713
    1.47635353422146
    1.47665283604571
    1.47653451810532
    1.47617826329114
    1.47651843462623
    1.47643729013359
    1.47639959082254
    1.47664516563682
    1.47636874258039
    1.47659668216283
    1.47635708981227
    1.47417428035651
    1.47648005654626
    1.47637863238081
    1.47637974981304
    1.47640034727647
   0.997233783631223
    1.47639995829788
    1.47667796269513
     1.5268304912199
    1.47668662873363
    1.47640809392802
    1.00028723956866
    1.47519275114858
    1.47637366078078
     1.5513280793088
    1.00000000962153
    1.52216377086744
    1.47673182665857
    1.00000714732235
    1.47402829657647
     1.4744562097383
    1.47632485545156
    1.47640397098968
    1.47640001640635
    1.47639940971921
    1.47640008807879
    1.47640007297535
    1.47639996611887
    1.47640030829364
    1.47639995822654
    1.47640014113019
    1.48202022981405
    1.47568468728359
   0.999999999930485
    1.47639997252212
    1.47639999394357
    1.47640015779981
    1.47639998677503
    1.50229434625966
    1.51401719408639
    1.48997195692942
    1.47655835888195
    1.47640000092061
    1.47640000224123
    1.52549662746975
    1.52683023576259
    1.47640000406706
    1.52258720777638
    1.52119714058288
    1.47639997765077
    1.47640000410417
    1.52520626375254
     1.5279506285958
    1.51730967349105
    1.51065107249209
    1.53268775600127
    1.52338000105248
    1.52931625396882
    1.50673786727494
    1.52579246139354
    1.49421967734076
     1.5150433753791
    1.48363502805299
     1.4967139485022
    1.47419873499096
    1.48477178225918
    1.47013002509592
    1.48145925961604
    1.47394976553393
    1.47533246648068
    1.47918925632072
    1.47620930276761
    1.48637674109335
     1.4766698771487
    1.48841686410015
    1.47585222740064
    1.48219809642186
    1.49830575253819
    1.50004553075553
    1.53282640038011
    1.50860975174328
    1.53252422678524
    1.49302629312016
     1.5148986328295
    1.47488274145119
    1.47536425270802
      1.509151711506
    1.52128577166997
     1.4713756905624
    1.52843696451267
    1.33091170537294
    1.51493423913116
     1.4127864621525
    1.51155207886861
    1.55746411589949
    1.50170510979484
     1.5957149304019
    1.49116480080782
    1.61869056917859
    1.48818745292817
    1.60857638230514
    1.49525010162087
    1.56221819913524
    1.50983728185713
    1.50218192747873
    1.52637688504919
    1.48710349979233
    1.53312945570779
    1.51730086046305
    1.27383571868136
     1.0494678637997
    1.47604615230934
   0.913389215974277
     1.3080417132428
   0.930121305396657
    1.02154833382426
    1.00886788935135
    1.00295332484621
   0.996176944362412
    1.02043778325374
   0.997059114058861
    1.00501349996805
    1.00022597614644
    0.99634064172259
    1.00040592256369
     1.0002152059024
   0.999866571346361
    1.00019244533817
    1.00000070044769
    0.99994229923883
    0.99999051979792
     1.0000044349413
    1.00002131334882
    1.30008773360269
     1.5323392697004
   0.996241471473604
    1.47640011376978
    1.50530564226558
    1.47640013099662
    1.47639924501174
    1.69108321508532
    1.52555993032048
    1.53368919323111
    1.48690500906693
    1.52119426792211
    1.53660151601275
    1.49837344964724
    1.61246408732112
    1.48404568101823
    1.70612844384268
    1.48128389381289
    1.73373078357467
     1.4940106601262
    1.74339835021353
    1.49548176969634
    1.70410212602272
     1.4913295049902
    1.63841157609788
    1.51896033196746
     1.5257294426184
    1.49702450614416
    1.55016115263054
   0.999995292604998
     1.0000193858746
    1.00000056086118
    1.53189128515632
    1.28806445471175
    1.20617089186719
    1.70144947508288
    1.60191923959302
    1.49838948858019
     1.5174317050602
    1.49554646247198
    1.52860726435061
    1.70885637291849
    1.58346538439983
    1.75311821621027
    1.68469053111884
    1.68431860590045
    1.67472734274167
    1.61365743886694
    1.63922566566608
    1.58647270728925
    1.30143979521453
    1.62322404661436
    1.57200118219942
    1.60874769201707
    1.56267233508576
    1.59746739624857
    1.56769861088616
    1.57077738842718
    1.56964231149481
    1.51167117174064
    1.54311142397362
    1.48728095232327
    1.55759794550198
    1.38213634809877
   0.938544159799114
    1.26835049595532
    1.28968529442318
   0.952327941405593
    1.55122732012845
    1.52547474177425
    1.53027991670532
    1.47639945012354
    1.47640340335159
     1.4758563157612
    1.48684515822774
    1.47639997337932
      1.476400003402
    1.47640000533192
    1.47639999925874
     1.4763999989076
    1.47640000014776
    1.47640000023602
    1.47639999996983
    1.47639999996695
    1.47639999998022
    1.47640000000429
    1.47640000000676
    1.47639999999925
    1.47639999999917
   0.999997595235749
     1.4764000000001
    1.47640000000007
    1.47639999999962
    1.47639999999999
   0.911111842217215
    1.02119127223104
    1.52527664668386
   0.999937596682143
    1.46486348366849
    1.51345752008233
    1.47640000000006
              1.4764
    1.47639999999999
    1.47323826011173
     1.4764000531385
    1.47639752969124
    1.47640005081156
    1.32888214793432
     1.4764000000001
    1.47639999999995
   0.932132011544689
    1.48291244421632
     1.4826775810952
              1.4764
              1.4764
              1.4764
    1.47639999999996
    1.47640000000001
    1.47639999999999
     1.4764000000001
    1.47640000000001
    1.47639999999959
    1.47640000000013
    1.47640000000099
    1.47639999999889
    1.47640000000771
    1.47640000000101
    1.47640000000034
    1.47639999999769
    1.47640000001379
    1.47640000000759
    1.47639999993085
    1.47639999997365
    1.47640000027082
    1.47640000006267
    1.47639999905137
    1.47640000004088
    1.47640000134687
    1.47639999893708
    1.47640000073929
    1.47640000825103
     1.4763999552862
    1.47639998085731
    1.47640021008843
    1.47639994726833
    1.47640012342437
    1.47640001064319
    1.47640021407065
    1.47639857253605
    1.47640000024063
    1.47639987558576
    1.47640164867824
    1.47640839555452
    1.47638875076189
    1.47635216045069
    1.47644928302123
    1.47667975506745
    1.47636859148751
    1.47498414742831
    1.47440274524319
    1.47930755817599
    1.49232931196932
    1.51175080012025
    1.52468265898115
    1.53159116074847
    1.52590660427446
    1.52320487053833
    1.52624244027068
    1.52632270375132
     1.5304870946407
    1.50509413970182
    1.49381313019878
    1.47268745810686
    1.47621053658808
    1.47709846744985
    1.47632258334703
     1.4884830419322
    1.49791973017389
    1.53792797519167
    1.42830153026326
   0.994912014624134
   0.896244652921928
    1.01089243651812
    1.01895654633456
   0.997236667038363
   0.997274455825041
    1.00053382408742
       1.00033498564
   0.999911524625785
   0.999966296334506
    1.00001272153334
    1.00000245804067
   0.999998478340916
   0.999999950347518
    1.00000013543173
     1.0000002019134
   0.999999967098156
    0.99999999288704
    1.00000000363335
    1.00000000210843
    0.99999999951687
   0.999999999758942
    1.00000000005819
    1.00000000006031
   0.999999999991948
    0.99999999998835
    1.00000000000177
    1.00000000000125
    1.00000000000125
   0.999999999999822
   0.999999999999788
    1.00000000000002
    1.00000000000004
   0.999999999999898
    1.00000000000585
   0.999999999999995
   0.999999999999994
    1.00000000000005
   0.999999999999994
                   1
                   1
    1.47640000000113
    1.47507845974001
                   1
                   1
    1.00000000000005
    1.47640797726198
    1.52812895855672
    1.50284126743404
    1.47546066652941
   0.999999999999999
                   1
   0.999999999999998
                   1
                   1
                   1
   0.999999999999999
   0.999999999999999
   0.999999999999999
                   1
    1.52479692795536
    1.47565379288378
   0.999999999999999
    1.47643481399653
    1.49624265489812
                   1
   0.999999999999999
                   1
                   1
    1.00009676055931
   0.971798871583465
   0.999999999999999
   0.999999999999999
                   1
                   1
                   1
                   1
   0.999999999999999
                   1
   0.999999999999999
                   1
                   1
                   1
   0.999999999999999
                   1
                   1
                   1
   0.999999999999999
                   1
                   1
                   1
                   1
                   1
   0.999999999999996
   0.999999999999997
    1.00000000000003
    1.00000000000002
   0.999999999999999
    1.00000000000001
   0.999999999999881
   0.999999999999953
    1.00000000000079
    1.00000000000058
   0.999999999999974
    1.00000000000003
   0.999999999995445
    1.00000000000148
    1.00000000002156
   0.999999999999537
   0.999999999982294
   0.999999999933396
    1.00000000016713
   0.999999999879618
   0.999999999615249
     1.3118424113555
   0.999984680937962
   0.913217831642631
    1.47640014037966
    1.75050333852828
   0.999999998670213
    1.00000000628644
    1.00000000014445
    1.81972835136495
    1.78572243979016
    1.47328442452927
    1.47639999840352
    1.47674192964754
              1.4764
    1.52905525380544
    1.72752013609301
    1.47640996050886
    1.47635240619009
    1.47640905738963
    1.48583180859402
    1.49560650164657
    1.47291614138371
    1.50058764518851
    1.53304211452401
    1.52944186233132
    1.52838462698091
    1.52634038918599
    1.49300976287549
     1.0875884162269
   0.996036257269292
    1.78553442039033
      1.000265135735
    1.00532269475858
    1.47641401061586
     1.4766264360754
    1.47417833512833
    1.48538110491232
    1.52692961652014
   0.997486495203802
   0.999988332797858
     1.4761332647492
    1.78484932544714
    1.52527925623518
   0.999999999996489
    1.47639899362844
    1.00000030029883
   0.999999936331859
                   1
    1.52396009545801
    1.47234119641809
    0.99999999954765
    1.00000000001268
     1.4858011218536
   0.997062952977066
   0.998293046662358
    1.00057666224135
    1.00015699237533
    1.47640000000406
    1.47639998149995
                   1
   0.999999989327015
    1.00000000000208
     1.4763999999508
                   1
                   1
                   1
    1.00914292138821
   0.988353782436231
   0.997052639861009
   0.997111475597785
    1.16284365120963
    1.00082040421066
    1.00000000000001
    1.47639999998621
    1.47639996431718