TITLE="Triangular mesh"
VARIABLES= "x" "y" "rho" "vx" "vy" "E" "p"
ZONE T="none",N=13704,E=27028,ET=TRIANGLE, F=FEPOINT
                  -8	                  -8	    1.47639999999958	   0.330330533730904	-2.7074000570942e-14	    1.73719999999942	   0.662659559739644
                   8	                  -8	   0.999999999997974	1.86301375697008e-12	-9.85679512845264e-13	   0.999999999997194	   0.399999999998877
                  -8	                   8	    1.47640000000007	   0.330330533730659	2.45810767983902e-14	    1.73720000000009	    0.66265955973995
                   8	                   8	   0.999999999997796	8.08109001329057e-13	1.01911943995198e-12	   0.999999999996904	   0.399999999998761
                 0.5	                   0	    1.30739211890466	0.000891579759352504	 0.00527799647336703	    1.45329553374389	   0.581310721575596
            0.497261	           0.0522642	    1.19525961816717	  0.0202538176721971	  -0.171577499790582	    1.30073744249006	   0.513159502844645
            0.489074	            0.103956	    1.21419223075774	    0.04528191221718	  -0.209160869020403	    1.34071529370093	   0.525164427309026
            0.475528	            0.154508	     1.2353352705823	  0.0779810812277559	  -0.237771716033696	    1.38436823572506	   0.538276835420262
            0.456773	            0.203368	    1.24758341043965	   0.117976154924023	  -0.263062423152849	      1.417608483962	   0.546303514170499
            0.433013	                0.25	    1.25749108257283	   0.163038929968919	  -0.282158935287961	    1.44987037505856	   0.553240207023063
            0.404508	            0.293893	    1.26165840836863	   0.211853928447057	  -0.290265264090537	    1.47567902678049	   0.557686504009012
            0.371572	            0.334565	    1.25316128852058	   0.262493391609215	  -0.289674162584332	    1.48786369270306	   0.556845384038093
            0.334565	            0.371572	    1.23433870814871	   0.317507466535809	  -0.283871732657667	    1.49734024311316	   0.554155732618881
            0.293893	            0.404508	    1.22004232052992	   0.377365588630844	  -0.272391542550116	    1.50412009218591	   0.548795330188318
                0.25	            0.433013	     1.2212652826293	   0.433041458866095	  -0.248662807560311	    1.51204047209232	   0.543909711484816
            0.203368	            0.456773	    1.22214336253903	   0.476128730156275	  -0.210274318356205	    1.52009264653637	   0.541817944271968
            0.154508	            0.475528	    1.22478441239197	   0.509264311494111	  -0.163815045028184	    1.53149732865992	   0.542495821628696
            0.103956	            0.489074	    1.23168290557724	   0.534039455159923	  -0.112255044149393	    1.54830964382541	   0.545964987585238
           0.0522642	            0.497261	    1.24621239107089	   0.546448201815456	 -0.0557488391480377	    1.57521511422115	   0.554886207707641
         1.41638e-16	                 0.5	    1.26274796989858	   0.546507011150033	 0.00220799135186755	    1.60219035118587	   0.565445943916303
          -0.0522642	            0.497261	     1.2874472123733	   0.534633595551836	  0.0578708699443032	    1.63661015443358	   0.580182719157676
           -0.103956	            0.489074	    1.31794715184089	    0.51074225038466	   0.109864507452614	    1.67636566827457	   0.598605369129303
           -0.154508	            0.475528	    1.35334261529065	   0.477263213447749	   0.156945753282386	    1.72206441407411	   0.620505743307331
           -0.203368	            0.456773	    1.38858210854261	   0.434616256837995	   0.194984817196269	     1.7657040031346	   0.643264865347492
               -0.25	            0.433013	    1.42910012534224	   0.385053215990472	   0.223471595394373	    1.81509503377193	    0.66938690307151
           -0.293893	            0.404508	    1.47257888606521	   0.332098390118445	   0.243185348225433	    1.86829722030591	   0.697419535219017
           -0.334565	            0.371572	    1.51522372131605	   0.278290069133945	   0.251804629986899	    1.91958603307563	   0.725150277877766
           -0.371572	            0.334565	    1.55988265815424	    0.22535231723402	    0.25132441169473	    1.97309062616258	   0.753687265069511
           -0.404508	            0.293893	    1.60100192879522	   0.172783641763668	   0.238710589583319	    2.02205770559941	   0.781017862974236
           -0.433013	                0.25	    1.63357732408921	   0.123738608032705	   0.214584220986671	    2.05946894493078	   0.803741091035345
           -0.456773	            0.203368	    1.65794804820719	  0.0810159910471242	   0.181292654224101	    2.08606888754943	   0.821352772027655
           -0.475528	            0.154508	    1.67546559335239	  0.0473630232632466	   0.145572674475865	    2.10379551420614	   0.833665412536676
           -0.489074	            0.103956	     1.6884660555059	  0.0223603955034537	   0.102897603216186	    2.11601149196841	   0.842660286869504
           -0.497261	           0.0522642	    1.70057102757012	 0.00586256416378918	  0.0516841738947818	    2.12460438400239	   0.848921532617316
                -0.5	         2.83277e-16	    1.69875248312669	 0.00059604419946263	-0.00146899851364412	    2.12897569194381	   0.851589422907973
           -0.497261	          -0.0522642	    1.70097293268515	 0.00613829422737444	 -0.0499319948545944	    2.12834095322319	   0.850475388673059
           -0.489074	           -0.103956	    1.68879179936508	  0.0204987281112688	 -0.0943160286081934	    2.11785401134137	   0.843995145232129
           -0.475528	           -0.154508	    1.67398570592684	   0.045197722262113	  -0.137607007053458	    2.10396026696297	   0.834560557429949
           -0.456773	           -0.203368	    1.64982177472813	  0.0790655693056768	  -0.177344248126851	    2.07873882043168	   0.819055097699074
           -0.433013	               -0.25	    1.61901036321555	   0.121895097427681	  -0.211526172531111	    2.04548741654028	   0.798895800822879
           -0.404508	           -0.293893	    1.58842848184865	    0.17105119885942	  -0.236336025547941	    2.00848751877563	   0.776355751893535
           -0.371572	           -0.334565	    1.55178917846086	   0.224729034229199	  -0.250008966224839	    1.96534292255501	   0.751064368035653
           -0.334565	           -0.371572	    1.51253740040182	   0.279898122939702	  -0.253073462612902	    1.92001668755188	   0.724932896085589
           -0.293893	           -0.404508	    1.47195905811066	   0.335081010843595	  -0.244889675082506	    1.87345693572131	    0.69867371502758
               -0.25	           -0.433013	    1.42990125448769	   0.388345163522087	  -0.225757796289761	    1.82359661781647	   0.671733967167469
           -0.203368	           -0.456773	    1.38954402329025	   0.436459395276161	   -0.19597725754092	    1.77313325384513	    0.64563889530943
           -0.154508	           -0.475528	    1.35257087820401	   0.478048706850051	  -0.156977176279962	    1.72410498346479	   0.621155270306578
           -0.103956	           -0.489074	    1.31790218363147	   0.511061886439544	   -0.11040660151106	    1.67684798094667	   0.598683188485182
          -0.0522642	           -0.497261	    1.28697792964895	   0.533563376553803	 -0.0576624558749584	    1.63482173001809	    0.57979494463712
        -9.18485e-17	                -0.5	    1.26026255338568	   0.544195490133296	-0.00179309612943914	    1.59795854968927	   0.564537578174314
           0.0522642	           -0.497261	    1.24436744372283	   0.544359104758251	   0.055021838834639	      1.573208132278	   0.554781919408823
            0.103956	           -0.489074	     1.2297633527224	   0.533453357008145	    0.11209353436654	    1.54862460776071	   0.546368095098438
            0.154508	           -0.475528	    1.22125300886071	    0.51082419035216	   0.164237164765954	    1.53280230356075	    0.54279746062863
            0.203368	           -0.456773	    1.21780362432689	   0.478234593765015	   0.211683817680774	    1.52147154633526	   0.541970287207536
                0.25	           -0.433013	    1.21851198393079	   0.436074384181249	   0.250098316564697	    1.51284438339424	   0.543551711773764
            0.293893	           -0.404508	    1.22089754713032	   0.379787888007354	   0.273817072681876	    1.50623240515162	   0.548965241451107
            0.334565	           -0.371572	    1.23163534756778	   0.317957940250651	   0.284106871969582	    1.49468578029967	   0.553088610562977
            0.371572	           -0.334565	    1.25044363370509	   0.261583538173627	   0.288934205534898	     1.4832369165443	   0.555304057591209
            0.404508	           -0.293893	    1.25859109790442	   0.211261764125611	   0.289577372936452	    1.46994598025298	   0.555635976955424
            0.433013	               -0.25	    1.25848606330169	   0.164025380171532	   0.282558077866644	    1.45195112769212	   0.553913436662311
            0.456773	           -0.203368	    1.25283892809961	   0.119645284010757	   0.266643838756695	    1.42696321939475	    0.54938330827306
            0.475528	           -0.154508	    1.23847537138515	  0.0787878819994526	   0.242510751604991	     1.3907688835653	    0.54020266863167
            0.489074	           -0.103956	    1.21653041960416	  0.0464152529083296	   0.211474850938466	    1.34514861691841	   0.526654233628554
            0.497261	          -0.0522642	    1.19788484387033	  0.0208222935104073	   0.171458007039112	    1.30478317981291	   0.514766351685318
                -7.8	                  -8	    1.47639999999937	   0.330330533730929	-2.52836834832003e-13	    1.73719999999912	   0.662659559739524
                -7.6	                  -8	    1.47639999999942	   0.330330533730844	-4.85697747125401e-13	    1.73719999999913	   0.662659559739543
                -7.4	                  -8	    1.47639999999946	   0.330330533730707	-5.64991799913244e-13	    1.73719999999911	   0.662659559739562
                -7.2	                  -8	    1.47639999999959	   0.330330533730545	-3.57608986061821e-13	     1.7371999999992	   0.662659559739626
                  -7	                  -8	    1.47639999999949	   0.330330533730548	-2.87672184556972e-13	    1.73719999999919	   0.662659559739624
                -6.8	                  -8	    1.47639999999957	   0.330330533730488	-3.46653340488951e-13	    1.73719999999933	   0.662659559739691
                -6.6	                  -8	    1.47639999999983	   0.330330533730354	-1.7520062923661e-13	    1.73719999999962	   0.662659559739825
                -6.4	                  -8	    1.47639999999989	    0.33033053373043	4.62275873963353e-14	    1.73719999999975	   0.662659559739864
                -6.2	                  -8	              1.4764	   0.330330533730486	 8.7641001979815e-14	    1.73719999999992	   0.662659559739918
                  -6	                  -8	    1.47640000000017	   0.330330533730524	1.91826876763038e-13	    1.73720000000021	   0.662659559740022
                -5.8	                  -8	    1.47640000000022	   0.330330533730609	2.61564917886815e-13	    1.73720000000032	   0.662659559740049
                -5.6	                  -8	    1.47640000000014	   0.330330533730749	3.02540593909892e-13	    1.73720000000028	   0.662659559740008
                -5.4	                  -8	    1.47640000000009	   0.330330533730933	2.01037216567581e-13	    1.73720000000014	   0.662659559739917
                -5.2	                  -8	    1.47639999999996	   0.330330533730925	8.79959438120101e-15	    1.73720000000006	   0.662659559739887
                  -5	                  -8	    1.47639999999999	   0.330330533730896	-2.6505833660055e-14	    1.73720000000003	   0.662659559739879
                -4.8	                  -8	    1.47639999999987	   0.330330533730903	-1.65255794990628e-13	    1.73719999999988	   0.662659559739823
                -4.6	                  -8	    1.47639999999991	   0.330330533730793	-1.65349479180714e-13	    1.73719999999988	   0.662659559739841
                -4.4	                  -8	    1.47640000000166	   0.330330533729846	3.04766871438633e-14	    1.73720000000232	   0.662659559740964
                -4.2	                  -8	    1.47639999998261	   0.330330533742811	-1.16573150607135e-11	    1.73719999997779	    0.66265955972904
                  -4	                  -8	    1.47640000008722	   0.330330533655499	1.15320481875111e-10	    1.73720000010429	   0.662659559794388
                -3.8	                  -8	    1.47640000010087	   0.330330533858962	-6.84617046045389e-10	    1.73720000022264	   0.662659559801742
                -3.6	                  -8	    1.47639999168831	   0.330330537841015	4.96490642233437e-09	    1.73719998861147	   0.662659554564046
                -3.4	                  -8	    1.47640012095863	   0.330330468760289	-1.79491093503045e-08	    1.73720016378069	   0.662659635286852
                -3.2	                  -8	    1.47639906795229	   0.330331043717849	-4.68214865718971e-08	    1.73719873899622	   0.662658976190772
                  -3	                  -8	    1.47640132357691	   0.330330021958804	-1.08938228882438e-07	    1.73720189959271	   0.662660390528178
                -2.8	                  -8	    1.47644244447555	   0.330307926970162	2.22215268247218e-05	    1.73725776368789	   0.662686148878491
                -2.6	                  -8	    1.47637055795004	    0.33035467990221	-7.07521183020721e-05	    1.73716529797493	    0.66264160947148
                -2.4	                  -8	    1.47359053431779	   0.331666455255046	-0.00081052585067255	    1.73327997554575	   0.660892027516391
                -2.2	                  -8	    1.46199270499195	    0.33724428703763	-0.00316869801338124	    1.71720895275213	   0.653625074615557
                  -2	                  -8	    1.45431498940192	   0.340701151357314	-0.00714319388789448	    1.70648099453907	   0.648814972410101
                -1.8	                  -8	    1.46581205260381	   0.334075414799911	 -0.0125444656274378	    1.72202273377549	   0.656044164209201
                -1.6	                  -8	    1.47923208497056	   0.326400316388987	 -0.0176330742302986	    1.73974513493806	   0.664287428840034
                -1.4	                  -8	    1.48970032871755	   0.319190905801917	 -0.0216110216950674	     1.7544953573125	   0.671304015748003
                -1.2	                  -8	     1.4997239792017	   0.312434237628051	 -0.0235749419703141	    1.76599654486258	   0.676952758169428
                  -1	                  -8	    1.50191112947512	   0.306293621944168	 -0.0268766481520686	    1.77218204588246	   0.680475242311064
                -0.8	                  -8	    1.51633276835627	   0.294887539303357	 -0.0316275852494409	    1.77685686524901	   0.684067733924081
                -0.6	                  -8	    1.51366996127556	   0.285129319967154	 -0.0206057589905697	    1.77847355504773	   0.686648993155077
                -0.4	                  -8	    1.48727898287468	   0.283065249772657	 0.00487038895378639	    1.79060681998897	   0.692401748130484
                -0.2	                  -8	    1.46990813222456	   0.297881722390912	 0.00977700843655505	    1.78379427480732	    0.68740358356349
                   0	                  -8	    1.46963048002134	   0.304632859324019	-0.00041455125529095	    1.78518963848927	    0.68679911664154
                 0.2	                  -8	    1.47644289042781	   0.302153126070415	-0.00494619364775017	    1.79675477752544	   0.691735869732039
                 0.4	                  -8	    1.47530247199858	   0.302834991170192	-0.00340725322659269	    1.79377063289137	   0.690445115402191
                 0.6	                  -8	    1.47246432581194	   0.306976047195786	 -0.0181529116918766	    1.79032430378954	   0.688281350706528
                 0.8	                  -8	    1.43589816120148	   0.273794564271792	 -0.0238882939304781	    1.71104321742829	   0.662725427887842
                   1	                  -8	   0.959335744438764	 -0.0497650308206948	  0.0242263391164402	   0.928988009384916	   0.371007423770351
                 1.2	                  -8	    1.01122175329141	 0.00897242202227182	-0.00243174260915074	    1.01564247673548	   0.406239513196693
                 1.4	                  -8	   0.998446182909797	-0.00112500090176579	0.000690119484449085	   0.997826786207313	   0.399130366645855
                 1.6	                  -8	    1.00023697004765	0.000178168091232418	-8.7068774058922e-05	    1.00033155764564	   0.400132615191425
                 1.8	                  -8	   0.999968633558609	-2.24684847933038e-05	1.40067119206273e-05	   0.999956088261258	   0.399982435164303
                   2	                  -8	     1.0000031589124	 2.5927081822458e-06	-2.52212360235913e-06	    1.00000442239509	   0.400001768955419
                 2.2	                  -8	   0.999999693210712	-2.03847261227194e-07	2.65459336129097e-07	   0.999999570498531	    0.39999982819939
                 2.4	                  -8	    1.00000001228188	 1.4318183526924e-09	-3.03313930398351e-08	    1.00000001719454	   0.400000006877814
                 2.6	                  -8	    1.00000000252562	2.92181656189063e-09	1.86839982379894e-09	     1.0000000035359	   0.400000001414361
                 2.8	                  -8	   0.999999999187626	-7.16337902173126e-10	6.11247116764788e-11	   0.999999998862693	   0.399999999545077
                   3	                  -8	    1.00000000013322	1.12444099774089e-10	-3.13676545683652e-11	    1.00000000018644	   0.400000000074577
                 3.2	                  -8	    0.99999999998321	-1.28811617163525e-11	4.81102128525893e-12	   0.999999999976485	   0.399999999990594
                 3.4	                  -8	    1.00000000000113	1.28906461138878e-12	-9.23105654980741e-13	    1.00000000000157	   0.400000000000629
                 3.6	                  -8	   0.999999999999513	-5.01603714310608e-14	-4.61045201322807e-13	    0.99999999999928	   0.399999999999712
                 3.8	                  -8	   0.999999999999504	-1.01440342305062e-13	-3.95978172279949e-13	   0.999999999999364	   0.399999999999746
                   4	                  -8	    0.99999999999966	-2.08487046461244e-13	-3.75878143900381e-13	   0.999999999999413	   0.399999999999765
                 4.2	                  -8	   0.999999999999677	-2.90565445521642e-13	-4.55609635330251e-13	   0.999999999999504	   0.399999999999802
                 4.4	                  -8	   0.999999999999835	-3.32366662360676e-13	-9.67359279901524e-14	    0.99999999999965	    0.39999999999986
                 4.6	                  -8	   0.999999999999826	-2.13299335046428e-13	 1.7591776621162e-13	   0.999999999999814	   0.399999999999926
                 4.8	                  -8	    0.99999999999993	-1.10955042681104e-13	-5.36365580553257e-14	    0.99999999999993	   0.399999999999972
                   5	                  -8	   0.999999999999989	-3.68482498172871e-14	2.23841772323756e-13	    1.00000000000008	    0.40000000000003
                 5.2	                  -8	                   1	-3.86758539227736e-15	2.43251334678375e-14	    1.00000000000011	   0.400000000000044
                 5.4	                  -8	                   1	1.69542564594078e-14	9.48549020768125e-14	    1.00000000000009	   0.400000000000035
                 5.6	                  -8	    1.00000000000001	3.60809475272122e-14	1.21898676255606e-13	    1.00000000000005	    0.40000000000002
                 5.8	                  -8	                   1	7.65483555144514e-14	1.20129162857933e-13	    1.00000000000003	   0.400000000000011
                   6	                  -8	   0.999999999999989	 2.0140639860545e-13	1.23428875386151e-13	   0.999999999999976	    0.39999999999999
                 6.2	                  -8	   0.999999999999906	1.34453477530638e-13	-4.54691897342346e-13	    0.99999999999988	   0.399999999999952
                 6.4	                  -8	   0.999999999999927	-8.31748595758401e-14	-2.0865174554817e-13	   0.999999999999853	   0.399999999999941
                 6.6	                  -8	   0.999999999999897	-9.05863770009676e-14	-6.73047567452326e-14	   0.999999999999859	   0.399999999999943
                 6.8	                  -8	   0.999999999999879	-7.20570701600299e-14	-8.67867575362773e-14	   0.999999999999822	   0.399999999999929
                   7	                  -8	   0.999999999999749	7.27591421733101e-14	2.30101816745503e-13	    0.99999999999968	   0.399999999999872
                 7.2	                  -8	   0.999999999999545	3.32935076928792e-13	-1.53943709764464e-13	   0.999999999999405	   0.399999999999762
                 7.4	                  -8	   0.999999999999296	5.89569638830607e-13	-3.12376549041884e-15	   0.999999999999073	   0.399999999999629
                 7.6	                  -8	   0.999999999998981	 8.9934540680071e-13	-2.30520119863987e-13	   0.999999999998607	   0.399999999999443
                 7.8	                  -8	   0.999999999998554	1.38604163543511e-12	-2.50378445328697e-13	   0.999999999997986	   0.399999999999194
                  -8	                 7.8	    1.47640000000007	   0.330330533730654	-5.33270623454867e-15	     1.7372000000001	   0.662659559739953
                  -8	                 7.6	    1.47640000000005	   0.330330533730677	 8.3481720175668e-15	    1.73720000000006	   0.662659559739936
                  -8	                 7.4	    1.47640000000001	   0.330330533730691	-6.74263321839451e-16	    1.73720000000002	   0.662659559739916
                  -8	                 7.2	    1.47639999999999	   0.330330533730688	7.97228931228944e-15	    1.73719999999999	   0.662659559739904
                  -8	                   7	              1.4764	   0.330330533730697	1.37830837335164e-14	              1.7372	   0.662659559739907
                  -8	                 6.8	    1.47639999999999	    0.33033053373068	-9.7141554799276e-15	    1.73719999999999	   0.662659559739907
                  -8	                 6.6	    1.47640000000001	   0.330330533730707	-1.41943588936984e-14	    1.73720000000001	   0.662659559739911
                  -8	                 6.4	    1.47640000000001	    0.33033053373071	 1.2475748293498e-14	    1.73720000000001	   0.662659559739908
                  -8	                 6.2	              1.4764	   0.330330533730689	-9.20625794780087e-16	              1.7372	   0.662659559739908
                  -8	                   6	              1.4764	   0.330330533730697	2.14527552471409e-16	              1.7372	   0.662659559739909
                  -8	                 5.8	              1.4764	   0.330330533730694	-8.88895569888888e-15	              1.7372	   0.662659559739907
                  -8	                 5.6	              1.4764	   0.330330533730708	6.12555602239832e-15	              1.7372	   0.662659559739907
                  -8	                 5.4	              1.4764	   0.330330533730694	6.97586966656073e-16	              1.7372	   0.662659559739909
                  -8	                 5.2	              1.4764	    0.33033053373069	1.01089545891577e-14	              1.7372	   0.662659559739909
                  -8	                   5	              1.4764	   0.330330533730695	-4.9261649899134e-15	    1.73720000000001	    0.66265955973991
                  -8	                 4.8	              1.4764	   0.330330533730688	-8.60680884972024e-15	              1.7372	   0.662659559739908
                  -8	                 4.6	              1.4764	   0.330330533730709	-5.11502785196837e-15	    1.73720000000001	   0.662659559739908
                  -8	                 4.4	              1.4764	   0.330330533730698	-2.30958145067485e-15	              1.7372	   0.662659559739909
                  -8	                 4.2	              1.4764	   0.330330533730697	8.27174730063076e-16	    1.73719999999999	   0.662659559739906
                  -8	                   4	              1.4764	   0.330330533730697	 8.3093874413473e-15	              1.7372	   0.662659559739908
                  -8	                 3.8	              1.4764	   0.330330533730699	-1.06417668255184e-14	              1.7372	   0.662659559739906
                  -8	                 3.6	              1.4764	   0.330330533730697	9.26671218853931e-15	              1.7372	   0.662659559739906
                  -8	                 3.4	              1.4764	   0.330330533730695	-2.28454988983701e-15	              1.7372	    0.66265955973991
                  -8	                 3.2	              1.4764	   0.330330533730697	-8.63929446203719e-15	              1.7372	   0.662659559739908
                  -8	                   3	              1.4764	   0.330330533730694	-2.54570940476637e-15	              1.7372	   0.662659559739908
                  -8	                 2.8	              1.4764	   0.330330533730696	-4.76326026556393e-15	              1.7372	   0.662659559739908
                  -8	                 2.6	              1.4764	    0.33033053373069	5.76131161533406e-15	              1.7372	   0.662659559739908
                  -8	                 2.4	              1.4764	   0.330330533730698	2.84693975697499e-15	              1.7372	   0.662659559739907
                  -8	                 2.2	              1.4764	   0.330330533730697	-8.71355303612658e-15	              1.7372	   0.662659559739907
                  -8	                   2	              1.4764	   0.330330533730701	1.35474766627728e-18	              1.7372	   0.662659559739908
                  -8	                 1.8	              1.4764	   0.330330533730688	5.31586888234949e-15	    1.73719999999999	   0.662659559739907
                  -8	                 1.6	              1.4764	   0.330330533730711	-3.02306237455115e-16	    1.73720000000001	   0.662659559739908
                  -8	                 1.4	              1.4764	   0.330330533730689	-2.27198442764764e-16	              1.7372	   0.662659559739908
                  -8	                 1.2	              1.4764	   0.330330533730706	6.55562056062502e-15	    1.73720000000001	   0.662659559739909
                  -8	                   1	              1.4764	   0.330330533730684	 1.7330718933672e-15	              1.7372	   0.662659559739909
                  -8	                 0.8	              1.4764	     0.3303305337307	-6.54754964999195e-16	              1.7372	   0.662659559739907
                  -8	                 0.6	              1.4764	   0.330330533730697	-4.99685143646808e-15	              1.7372	   0.662659559739908
                  -8	                 0.4	              1.4764	   0.330330533730697	4.35821088113941e-15	              1.7372	   0.662659559739909
                  -8	                 0.2	              1.4764	     0.3303305337307	7.01497514193739e-15	              1.7372	   0.662659559739907
                  -8	                   0	              1.4764	   0.330330533730685	-8.10158523703586e-15	              1.7372	   0.662659559739909
                  -8	                -0.2	              1.4764	   0.330330533730695	-4.85783679206257e-15	              1.7372	   0.662659559739908
                  -8	                -0.4	              1.4764	   0.330330533730699	-1.07881159818141e-16	              1.7372	   0.662659559739907
                  -8	                -0.6	              1.4764	   0.330330533730701	-5.16332281338722e-15	              1.7372	   0.662659559739908
                  -8	                -0.8	              1.4764	    0.33033053373069	-2.8622387374467e-15	              1.7372	   0.662659559739909
                  -8	                  -1	              1.4764	   0.330330533730701	7.79170834198013e-15	              1.7372	   0.662659559739908
                  -8	                -1.2	              1.4764	   0.330330533730697	6.93923584667159e-16	              1.7372	   0.662659559739908
                  -8	                -1.4	              1.4764	   0.330330533730698	 2.2589021801281e-15	              1.7372	   0.662659559739908
                  -8	                -1.6	              1.4764	   0.330330533730693	-5.55403821289118e-15	              1.7372	   0.662659559739907
                  -8	                -1.8	              1.4764	   0.330330533730699	4.74709734808374e-15	              1.7372	   0.662659559739907
                  -8	                  -2	              1.4764	   0.330330533730694	-5.95602264305914e-15	    1.73719999999999	   0.662659559739906
                  -8	                -2.2	              1.4764	   0.330330533730697	-1.14472722099291e-14	              1.7372	   0.662659559739906
                  -8	                -2.4	              1.4764	   0.330330533730694	-2.12666870270367e-15	              1.7372	   0.662659559739907
                  -8	                -2.6	    1.47640000000001	   0.330330533730701	-9.20439077574129e-15	    1.73720000000001	    0.66265955973991
                  -8	                -2.8	              1.4764	   0.330330533730689	-2.86537602197223e-15	              1.7372	   0.662659559739911
                  -8	                  -3	    1.47640000000001	   0.330330533730705	2.10615280028432e-14	    1.73720000000001	   0.662659559739911
                  -8	                -3.2	              1.4764	   0.330330533730696	3.91658640662833e-15	    1.73720000000001	   0.662659559739911
                  -8	                -3.4	              1.4764	   0.330330533730694	-7.98213050910213e-17	              1.7372	   0.662659559739908
                  -8	                -3.6	              1.4764	   0.330330533730681	1.26474640831655e-15	    1.73719999999999	   0.662659559739907
                  -8	                -3.8	              1.4764	   0.330330533730706	-9.93095933986331e-15	    1.73720000000001	    0.66265955973991