TITLE="Triangular mesh"
VARIABLES= "x" "y" "rho" "vx" "vy" "E" "p"
ZONE T="none",N=13704,E=27028,ET=TRIANGLE, F=FEPOINT
                  -8	                  -8	    1.47639999999948	   0.330330533730953	-4.08970304954588e-14	    1.73719999999928	   0.662659559739579
                   8	                  -8	   0.999999999993398	5.34976620939138e-12	-2.96565983933358e-12	   0.999999999990782	   0.399999999996313
                  -8	                   8	    1.47640000000027	    0.33033053373056	1.07113180821486e-14	    1.73720000000037	   0.662659559740075
                   8	                   8	   0.999999999994436	3.04173499073724e-12	2.07799563082678e-12	   0.999999999992184	   0.399999999996874
                 0.5	                   0	     1.5428854526376	-0.00244746707189327	-0.00144594262069885	    1.83611767395839	   0.734444576019677
            0.497261	           0.0522642	    1.54535002640566	-0.00280423472831711	-0.00111197078546836	    1.83789841940079	   0.735156555157917
            0.489074	            0.103956	    1.51613820332628	-0.00108813583780069	-0.00279341166509772	    1.82678297907838	   0.730710466467438
            0.475528	            0.154508	    1.48975744388217	   0.011582697313492	 -0.0402171514225786	    1.81263224519822	   0.724531012763096
            0.456773	            0.203368	    1.47113003764857	  0.0420246244651747	 -0.0930507017148916	    1.78592098815086	   0.711301235611949
            0.433013	                0.25	    1.43926142524054	  0.0911895598600557	  -0.154477307167807	    1.74725555647053	   0.689639488888206
            0.404508	            0.293893	    1.39762680732102	   0.154224750941294	  -0.208826472727414	    1.70319382839717	   0.662439263574842
            0.371572	            0.334565	    1.34566245129609	   0.226726732019543	  -0.248084596540018	    1.64699906464059	   0.628400847855704
            0.334565	            0.371572	    1.28413486440111	   0.301975480708801	   -0.27413270140301	    1.57443699511486	   0.587054731284246
            0.293893	            0.404508	    1.28525402601924	   0.366154897466888	  -0.254308757882218	    1.59179274162978	   0.585630214714572
                0.25	            0.433013	   0.904777747287579	   0.638884461985952	  -0.377887283869338	    1.12908872914267	   0.351934022599279
            0.203368	            0.456773	    0.89853293674807	   0.682371860890849	  -0.295612880912541	    1.13745779192273	   0.355602079602095
            0.154508	            0.475528	   0.909190686404933	   0.719510431671942	  -0.232014584933933	    1.15864979418449	   0.359534689169782
            0.103956	            0.489074	   0.935585909447787	   0.732982685857044	  -0.153050270001168	    1.19622383271069	   0.373575174059792
           0.0522642	            0.497261	   0.970248097297232	   0.731799846344001	 -0.0742195534682366	    1.24371153952076	   0.392496095616067
         1.41638e-16	                 0.5	    1.01034707951097	   0.713428532612421	 0.00357313251496058	    1.29571356947183	    0.41543350181662
          -0.0522642	            0.497261	    1.05657222807541	   0.682965550106936	  0.0746739557410573	    1.35366458370398	   0.441721581421442
           -0.103956	            0.489074	    1.11005627525557	   0.638051297014491	   0.137938537637214	    1.41857797085103	   0.472824089643551
           -0.154508	            0.475528	    1.16810233865691	   0.582631138535578	   0.192242777396989	    1.48822309569804	   0.507350679424223
           -0.203368	            0.456773	    1.22456522824235	   0.520377967324566	   0.234177754444102	    1.55258688180968	   0.541283117741794
               -0.25	            0.433013	    1.28084546901408	   0.454854165267414	   0.264591657373367	    1.61755965821242	   0.576090370488215
           -0.293893	            0.404508	    1.33390046149117	   0.388675553121954	   0.284970346492222	    1.67879098578222	   0.609549572445418
           -0.334565	            0.371572	     1.3822677667198	   0.323268009456302	   0.292820172338302	    1.73147857946561	   0.639997287983165
           -0.371572	            0.334565	    1.42673502856458	   0.260358419331117	   0.290543440976546	    1.78225371745634	   0.669471102700685
           -0.404508	            0.293893	    1.46897923594227	    0.19924233711398	   0.275350686822156	    1.82925879087222	   0.697765539333126
           -0.433013	                0.25	     1.5064998103857	   0.142703859821526	   0.247508403248246	    1.87039435375352	   0.723564191969242
           -0.456773	            0.203368	    1.54126845476922	   0.092441450829911	   0.207043974164881	    1.90841136498141	    0.74751641332024
           -0.475528	            0.154508	    1.57308906697127	  0.0517364033712827	   0.158584563296081	    1.93990590363476	   0.767207894538932
           -0.489074	            0.103956	    1.59350197373993	  0.0216789980669729	   0.100134508506033	    1.96028138745988	   0.780767189208399
           -0.497261	           0.0522642	    1.60213641647056	 0.00521546587353088	  0.0417432524491198	    1.97374761700347	   0.788931986571073
                -0.5	         2.83277e-16	    1.60519125522735	0.000551022462030171	 -0.0192537106177717	    1.97743399976179	   0.790854491824779
           -0.497261	          -0.0522642	    1.60555500898956	 0.00787184986806606	 -0.0707831559445102	    1.97301673523303	   0.787577948066897
           -0.489074	           -0.103956	    1.59389767617889	  0.0258300563270902	  -0.120254525539051	    1.95792497177921	   0.778347382649723
           -0.475528	           -0.154508	    1.57771504816003	  0.0536972880374376	  -0.164604367947362	    1.93709954353722	   0.765380470116611
           -0.456773	           -0.203368	    1.55002682158774	  0.0903571213000012	  -0.202956170273692	    1.90616645877596	   0.747166077660432
           -0.433013	               -0.25	    1.51923711580062	   0.135254087641918	  -0.234988039785285	    1.86819149549773	   0.724939848279444
           -0.404508	           -0.293893	    1.47423483488061	   0.187470868456778	  -0.259379646792629	    1.82476290639058	   0.699706014008565
           -0.371572	           -0.334565	    1.42857784470259	   0.247448359499255	  -0.275646117619933	    1.77341665093813	   0.670163206365373
           -0.334565	           -0.371572	    1.37889088222909	   0.312717391663168	  -0.282935485198741	    1.71955555361319	   0.638776546568944
           -0.293893	           -0.404508	    1.32693299012783	   0.381462566337856	   -0.27892798197636	    1.66416011198822	   0.606399367055849
               -0.25	           -0.433013	    1.27231955684094	   0.451640850031746	  -0.262697064241322	    1.60437085020525	   0.572282439222003
           -0.203368	           -0.456773	    1.21699686880669	   0.519181633122742	  -0.233348402455762	    1.54266059134643	   0.538202585063054
           -0.154508	           -0.475528	    1.16187378218196	   0.582142679398783	  -0.191457081050456	    1.48022085522469	    0.50482095201142
           -0.103956	           -0.489074	    1.10735580479116	   0.636957322251677	  -0.138042396811469	    1.41648080286685	   0.472517942204359
          -0.0522642	           -0.497261	    1.05578113250222	   0.680632370025311	 -0.0739888974993533	    1.35448047830293	    0.44281592393008
        -9.18485e-17	                -0.5	    1.00724112522623	   0.711303758306407	-0.00282456511488718	    1.29443774917016	   0.415850151304803
           0.0522642	           -0.497261	   0.970651922405926	   0.728669482715855	  0.0732931523191045	    1.24746983994853	   0.394869773090695
            0.103956	           -0.489074	   0.936163616807446	    0.73191735495621	   0.153084163376785	    1.20114846170845	    0.37577049623046
            0.154508	           -0.475528	   0.908707134109639	    0.72100899017507	   0.232193167569509	    1.16325087409883	   0.361023001721127
            0.203368	           -0.456773	   0.903479379254665	    0.67882221882049	   0.294953425800467	    1.14730847481066	   0.359938708063526
                0.25	           -0.433013	   0.886146589351704	   0.657106307984381	   0.388912226193429	    1.11560365727888	   0.342909429812292
            0.293893	           -0.404508	    1.28684335550526	   0.364248313005473	   0.250978228924063	    1.60048790245306	   0.589836629683202
            0.334565	           -0.371572	    1.28162066661956	    0.30308877003951	    0.27669053418912	    1.57838020077622	   0.588181853344958
            0.371572	           -0.334565	    1.34356249346141	   0.227230632782571	   0.247763640660937	    1.64956418585501	    0.62945563132002
            0.404508	           -0.293893	    1.39142584790905	   0.152331146674925	   0.206365010939377	     1.7009427825055	   0.662068371041367
            0.433013	               -0.25	    1.43340482937307	   0.087947205918795	   0.149085247543281	    1.74358033068623	   0.688842848862506
            0.456773	           -0.203368	    1.46457011332146	  0.0389482843756865	  0.0871049942362769	    1.77672406549603	   0.708022864036596
            0.475528	           -0.154508	    1.47659859033224	 0.00964251200293491	  0.0338747190625129	     1.7989069910453	   0.719196459800331
            0.489074	           -0.103956	      1.510221911587	-0.000985174555119704	 0.00855880565399613	     1.8168753144388	   0.726727706916916
            0.497261	          -0.0522642	    1.53976814110117	-0.00221940238649968	 0.00264334762103667	    1.82846809395989	   0.731383568922038
                -7.8	                  -8	    1.47639999999931	   0.330330533731039	-1.14845065164562e-13	    1.73719999999896	   0.662659559739441
                -7.6	                  -8	    1.47639999999924	   0.330330533731028	-4.35673942196571e-13	    1.73719999999896	   0.662659559739444
                -7.4	                  -8	    1.47639999999937	   0.330330533730864	 -6.573776083893e-13	    1.73719999999906	   0.662659559739511
                -7.2	                  -8	     1.4763999999994	   0.330330533730696	-6.66691753386411e-13	    1.73719999999906	   0.662659559739545
                  -7	                  -8	     1.4763999999995	   0.330330533730607	-7.39624623219883e-13	    1.73719999999903	   0.662659559739549
                -6.8	                  -8	    1.47639999999954	   0.330330533730433	-7.56480817791542e-13	     1.7371999999991	   0.662659559739609
                -6.6	                  -8	    1.47639999999966	   0.330330533730254	-5.37647886464504e-13	    1.73719999999924	   0.662659559739696
                -6.4	                  -8	     1.4763999999995	   0.330330533730312	-3.48257032527122e-13	    1.73719999999915	   0.662659559739654
                -6.2	                  -8	    1.47639999999941	   0.330330533730342	-3.81790799448184e-13	    1.73719999999901	   0.662659559739593
                  -6	                  -8	    1.47639999999948	   0.330330533730342	-2.42708105781586e-13	    1.73719999999898	   0.662659559739581
                -5.8	                  -8	    1.47639999999946	   0.330330533730368	-6.99536607266817e-14	    1.73719999999897	   0.662659559739573
                -5.6	                  -8	     1.4763999999991	    0.33033053373064	1.61578427751574e-13	    1.73719999999852	   0.662659559739348
                -5.4	                  -8	     1.4764000000027	   0.330330533728942	-2.02624772223925e-13	    1.73720000000356	   0.662659559741614
                -5.2	                  -8	    1.47639999998128	   0.330330533741746	5.66235741586431e-12	    1.73719999997494	   0.662659559728136
                  -5	                  -8	    1.47640000011412	   0.330330533668284	-2.86995073401504e-11	    1.73720000015495	   0.662659559811574
                -4.8	                  -8	    1.47639999919408	   0.330330534171117	1.44621646719691e-10	    1.73719999890471	   0.662659559233464
                -4.6	                  -8	    1.47640000323562	   0.330330532066586	-7.3975879545304e-10	     1.7372000044479	   0.662659561773088
                -4.4	                  -8	    1.47639999383014	   0.330330530870522	-1.64903107781218e-09	    1.73719998857554	   0.662659555862734
                -4.2	                  -8	    1.47639979718846	   0.330330619862537	-1.0818718456078e-07	    1.73719971235958	   0.662659432307224
                  -4	                  -8	    1.47639930044501	   0.330330892522459	1.95062274744959e-07	     1.7371990377876	    0.66265912012868
                -3.8	                  -8	    1.47641344469456	   0.330323384355635	3.00191182766331e-06	    1.73721836711609	   0.662668007869038
                -3.6	                  -8	    1.47641502915027	     0.3303208204719	-4.94941585962611e-06	    1.73721970004218	   0.662669006612553
                -3.4	                  -8	    1.47572184149226	   0.330676702873128	-0.000195358997989032	     1.7362662421912	   0.662233310222314
                -3.2	                  -8	    1.47183396950553	   0.332614651708615	-0.00115129713688486	    1.73089653910564	   0.659791689214613
                  -3	                  -8	    1.46139984397367	   0.337661193109984	 -0.0034601933235601	    1.71644463879927	   0.653250031655829
                -2.8	                  -8	    1.45058405794005	   0.342608265468512	-0.00664268645844903	    1.70140255120859	   0.646494184768702
                -2.6	                  -8	    1.45472335009676	   0.340038446484311	-0.00954172258523302	    1.70684920174829	   0.649072381167984
                -2.4	                  -8	    1.47004741258005	   0.331558889545866	  -0.012693004892269	    1.72758953584313	   0.658667601958849
                -2.2	                  -8	    1.47959973470168	   0.326379748251631	 -0.0160765562399116	     1.7406696174597	   0.664668865289485
                  -2	                  -8	     1.4863857861938	   0.322540122718664	 -0.0175017094151041	    1.74990694408483	    0.66894534262288
                -1.8	                  -8	    1.49146864165153	   0.318988568731961	 -0.0188885780337003	    1.75651276368046	   0.672146188091996
                -1.6	                  -8	    1.49673450742222	   0.315126436304399	 -0.0200381651535928	    1.76335795778453	   0.675496441408127
                -1.4	                  -8	     1.5054190775063	    0.30958654668664	 -0.0201987488120665	    1.77471473499635	    0.68090602898183
                -1.2	                  -8	     1.5112237980383	   0.305212996902505	 -0.0203811112298832	    1.78228151150985	   0.684631452680264
                  -1	                  -8	    1.50669111573181	   0.305193838377845	 -0.0215151757370829	    1.77546187717756	   0.681977630380696
                -0.8	                  -8	    1.50448043614581	   0.304921179347594	 -0.0230483564522292	    1.77034429516696	   0.680001480900677
                -0.6	                  -8	     1.5096103340773	    0.29810761393186	 -0.0228845283585176	    1.78067299213474	   0.685279824406578
                -0.4	                  -8	    1.52196969432431	   0.289884628567233	 -0.0247833767378579	    1.78313177461617	    0.68748658063262
                -0.2	                  -8	    1.50998550267356	    0.28472534715299	 -0.0172065268556536	    1.77450946178157	   0.685231915087324
                   0	                  -8	    1.48272301534385	   0.285466348777608	0.000244304059424841	    1.77606412988976	   0.686259907248171
                 0.2	                  -8	    1.47403146468075	   0.289729980882485	  0.0122129141330156	    1.78567303994772	   0.689478183270369
                 0.4	                  -8	    1.47032930541752	   0.299557456351111	 0.00990184871571255	    1.78426569745089	   0.687289543918849
                 0.6	                  -8	    1.46175618498508	   0.308094133205873	 0.00321315745849418	    1.77317376854269	   0.681515926439683
                 0.8	                  -8	    1.47087656546619	    0.30556304910709	-0.00189381427073189	    1.78905946732548	   0.688155942659762
                   1	                  -8	    1.47461883379749	    0.30357964578174	-0.00378245169673276	    1.79360268761347	   0.690256503896568
                 1.2	                  -8	     1.4738106224848	    0.30315890762954	-0.00839216033116177	    1.79244076687994	   0.689865338799265
                 1.4	                  -8	    1.47148922838724	   0.298914350068806	 -0.0122531225749633	    1.78743255512082	   0.688633386140904
                 1.6	                  -8	    1.47325932095434	   0.292848301256065	-0.00816876418135054	    1.78848158236191	   0.690103589751053
                 1.8	                  -8	    1.45684856825949	   0.300427035501114	-0.00832329906697383	    1.76406616958362	   0.679308300034581
                   2	                  -8	    1.45648433270644	   0.299632608994201	 -0.0278741312545286	     1.7626371087309	   0.678675969986003
                 2.2	                  -8	     1.4378686943962	   0.274881565358678	 -0.0216828441447015	    1.71317555136081	    0.66340598322334
                 2.4	                  -8	   0.989505825418281	 -0.0285007256077276	  0.0203577864151593	   0.971718019618627	   0.388444436387367
                 2.6	                  -8	    1.01009416499274	 0.00845706898038679	-0.00165718817041579	    1.01429555392473	   0.405703217976946
                 2.8	                  -8	    0.99747945786729	-0.00200453922771131	0.000478163293063899	   0.996491888914437	   0.398595908343101
                   3	                  -8	    1.00048050341216	 0.00038283642966474	-0.000113187044485834	    1.00067267642915	   0.400269038681337
                 3.2	                  -8	    0.99991731920088	-6.52803646574617e-05	2.19752311098079e-05	   0.999884216277931	   0.399953685562363
                 3.4	                  -8	    1.00001245721017	9.54396019945376e-06	-3.13292515875125e-06	    1.00001744095038	   0.400006976359971
                 3.6	                  -8	   0.999998234395095	-1.32380203774593e-06	4.65634526011988e-07	     0.9999975280878	   0.399999011234726
                 3.8	                  -8	    1.00000022746067	1.68055551539982e-07	-6.65257795793873e-08	    1.00000031844783	   0.400000127379125
                   4	                  -8	   0.999999976031203	-1.78058732573242e-08	 8.0994653421619e-09	   0.999999966443512	   0.399999986577405
                 4.2	                  -8	    1.00000000186801	1.19564991508094e-09	-8.78111856102912e-10	    1.00000000261515	   0.400000001046061
                 4.4	                  -8	   0.999999999910971	-5.66553502257174e-12	1.45847211338935e-10	   0.999999999875196	   0.399999999950078
                 4.6	                  -8	   0.999999999993233	-1.38050842526378e-11	-6.98825645729282e-12	   0.999999999990527	   0.399999999996211
                 4.8	                  -8	    1.00000000000249	2.54270207149048e-12	-6.02225826423042e-13	    1.00000000000345	   0.400000000001382
                   5	                  -8	   0.999999999999046	-8.35567787261887e-13	3.82859724724126e-13	   0.999999999998677	   0.399999999999471
                 5.2	                  -8	   0.999999999999715	-1.24804439740484e-13	-1.15736454908744e-13	   0.999999999999658	   0.399999999999863
                 5.4	                  -8	   0.999999999999659	-1.03167557365083e-13	6.02783338487173e-14	   0.999999999999569	   0.399999999999828
                 5.6	                  -8	   0.999999999999703	 7.6516702659844e-14	6.02836947826901e-14	   0.999999999999602	   0.399999999999841
                 5.8	                  -8	    0.99999999999966	 2.0905114526102e-13	8.08423745258682e-14	   0.999999999999511	   0.399999999999804
                   6	                  -8	   0.999999999999519	6.19427397428943e-13	1.30295838843546e-13	   0.999999999999277	   0.399999999999711
                 6.2	                  -8	   0.999999999999197	7.81850846872965e-13	-9.16308357522251e-13	   0.999999999998857	   0.399999999999543
                 6.4	                  -8	   0.999999999998877	 6.6721717651007e-13	-7.38383453936682e-13	   0.999999999998391	   0.399999999999356
                 6.6	                  -8	   0.999999999998424	8.84583882819369e-13	-6.36683215452793e-13	   0.999999999997819	   0.399999999999128
                 6.8	                  -8	    0.99999999999795	1.15807139273032e-12	-8.18118323442927e-13	   0.999999999997145	   0.399999999998858
                   7	                  -8	   0.999999999997414	  1.551210514804e-12	-4.83900691542122e-13	   0.999999999996406	   0.399999999998562
                 7.2	                  -8	    0.99999999999677	2.14969505787489e-12	-1.24226307298454e-12	   0.999999999995509	   0.399999999998203
                 7.4	                  -8	   0.999999999996055	2.70186317328194e-12	-1.12445246807768e-12	   0.999999999994536	   0.399999999997814
                 7.6	                  -8	   0.999999999995297	3.37640484455822e-12	-1.60149947451158e-12	   0.999999999993446	   0.399999999997378
                 7.8	                  -8	   0.999999999994424	4.34326744704097e-12	-1.69138262710674e-12	   0.999999999992204	   0.399999999996882
                  -8	                 7.8	    1.47640000000024	   0.330330533730568	-8.7498775620753e-15	    1.73720000000032	   0.662659559740056
                  -8	                 7.6	    1.47640000000021	   0.330330533730593	1.12889122915748e-14	    1.73720000000028	   0.662659559740035
                  -8	                 7.4	    1.47640000000016	   0.330330533730616	1.63428788236289e-15	    1.73720000000021	   0.662659559740005
                  -8	                 7.2	    1.47640000000011	   0.330330533730624	1.19017334417791e-14	    1.73720000000016	   0.662659559739981
                  -8	                   7	    1.47640000000008	   0.330330533730653	1.08774897120865e-14	    1.73720000000011	   0.662659559739958
                  -8	                 6.8	    1.47640000000004	   0.330330533730655	 3.2783414903544e-16	    1.73720000000005	   0.662659559739937
                  -8	                 6.6	    1.47640000000003	   0.330330533730698	-1.70896369326266e-14	    1.73720000000004	   0.662659559739921
                  -8	                 6.4	              1.4764	   0.330330533730713	1.49789875768181e-14	              1.7372	   0.662659559739904
                  -8	                 6.2	              1.4764	   0.330330533730689	-1.49848375942855e-15	              1.7372	   0.662659559739908
                  -8	                   6	              1.4764	   0.330330533730697	4.40746788065654e-16	              1.7372	   0.662659559739909
                  -8	                 5.8	              1.4764	   0.330330533730694	-9.04770169414986e-15	              1.7372	   0.662659559739907
                  -8	                 5.6	              1.4764	   0.330330533730708	6.02644883717231e-15	              1.7372	   0.662659559739907
                  -8	                 5.4	              1.4764	   0.330330533730695	8.73211303619912e-16	              1.7372	   0.662659559739908
                  -8	                 5.2	              1.4764	    0.33033053373069	1.00118352097867e-14	              1.7372	   0.662659559739909
                  -8	                   5	              1.4764	   0.330330533730695	-4.75932158138922e-15	    1.73720000000001	    0.66265955973991
                  -8	                 4.8	              1.4764	   0.330330533730688	-8.55721883312866e-15	              1.7372	   0.662659559739908
                  -8	                 4.6	              1.4764	   0.330330533730709	-5.28351977245671e-15	    1.73720000000001	   0.662659559739908
                  -8	                 4.4	              1.4764	   0.330330533730698	-2.2328387262391e-15	              1.7372	   0.662659559739909
                  -8	                 4.2	              1.4764	   0.330330533730697	 8.4587248253158e-16	    1.73719999999999	   0.662659559739906
                  -8	                   4	              1.4764	   0.330330533730697	8.20709225026648e-15	              1.7372	   0.662659559739908
                  -8	                 3.8	              1.4764	   0.330330533730699	-1.0563600314905e-14	              1.7372	   0.662659559739906
                  -8	                 3.6	              1.4764	   0.330330533730697	9.18642843266899e-15	              1.7372	   0.662659559739906
                  -8	                 3.4	              1.4764	   0.330330533730694	-2.17458255114911e-15	              1.7372	    0.66265955973991
                  -8	                 3.2	              1.4764	   0.330330533730697	-8.77187432720894e-15	              1.7372	   0.662659559739908
                  -8	                   3	              1.4764	   0.330330533730694	-2.55423425649428e-15	              1.7372	   0.662659559739908
                  -8	                 2.8	              1.4764	   0.330330533730696	-4.72671350182445e-15	              1.7372	   0.662659559739908
                  -8	                 2.6	              1.4764	    0.33033053373069	5.80151799529898e-15	              1.7372	   0.662659559739908
                  -8	                 2.4	              1.4764	   0.330330533730698	2.76868105434376e-15	              1.7372	   0.662659559739907
                  -8	                 2.2	              1.4764	   0.330330533730697	-8.83974807736986e-15	              1.7372	   0.662659559739907
                  -8	                   2	              1.4764	   0.330330533730701	3.01199313868368e-16	              1.7372	   0.662659559739908
                  -8	                 1.8	              1.4764	   0.330330533730688	4.69536660690584e-15	    1.73719999999999	   0.662659559739907
                  -8	                 1.6	              1.4764	   0.330330533730711	-4.29052815942784e-16	    1.73720000000001	   0.662659559739908
                  -8	                 1.4	              1.4764	   0.330330533730689	-1.97183095938717e-16	              1.7372	   0.662659559739908
                  -8	                 1.2	              1.4764	   0.330330533730706	6.46455463997275e-15	    1.73720000000001	   0.662659559739909
                  -8	                   1	              1.4764	   0.330330533730684	1.92214651348369e-15	              1.7372	   0.662659559739909
                  -8	                 0.8	              1.4764	     0.3303305337307	-7.79654812458023e-16	              1.7372	   0.662659559739907
                  -8	                 0.6	              1.4764	   0.330330533730697	-5.03085455303171e-15	              1.7372	   0.662659559739908
                  -8	                 0.4	              1.4764	   0.330330533730697	4.19248731708671e-15	              1.7372	   0.662659559739909
                  -8	                 0.2	              1.4764	     0.3303305337307	7.08213735892211e-15	              1.7372	   0.662659559739908
                  -8	                   0	              1.4764	   0.330330533730685	-8.00816029865226e-15	              1.7372	   0.662659559739909
                  -8	                -0.2	              1.4764	   0.330330533730695	-4.93977993813315e-15	              1.7372	   0.662659559739908
                  -8	                -0.4	              1.4764	   0.330330533730698	-2.44095463748492e-16	              1.7372	   0.662659559739906
                  -8	                -0.6	              1.4764	   0.330330533730701	-5.17270829709342e-15	              1.7372	   0.662659559739908
                  -8	                -0.8	              1.4764	    0.33033053373069	-2.87212541647149e-15	              1.7372	   0.662659559739909
                  -8	                  -1	              1.4764	   0.330330533730701	7.76557050502209e-15	              1.7372	   0.662659559739908
                  -8	                -1.2	              1.4764	   0.330330533730697	7.04020530127564e-16	              1.7372	   0.662659559739908
                  -8	                -1.4	              1.4764	   0.330330533730698	2.11029797394195e-15	              1.7372	   0.662659559739908
                  -8	                -1.6	              1.4764	   0.330330533730693	-5.6225307672394e-15	              1.7372	   0.662659559739907
                  -8	                -1.8	              1.4764	   0.330330533730699	4.84174359900499e-15	              1.7372	   0.662659559739907
                  -8	                  -2	              1.4764	   0.330330533730693	-6.00369393177404e-15	    1.73719999999999	   0.662659559739906
                  -8	                -2.2	              1.4764	   0.330330533730697	-1.13142242393931e-14	    1.73719999999999	   0.662659559739906
                  -8	                -2.4	              1.4764	   0.330330533730694	-2.20117206695331e-15	              1.7372	   0.662659559739907
                  -8	                -2.6	              1.4764	   0.330330533730701	-9.29288577056459e-15	    1.73720000000001	    0.66265955973991
                  -8	                -2.8	              1.4764	   0.330330533730689	-2.93937304930279e-15	              1.7372	   0.662659559739911
                  -8	                  -3	    1.47640000000001	   0.330330533730704	2.15182523891496e-14	    1.73720000000001	   0.662659559739911
                  -8	                -3.2	              1.4764	   0.330330533730696	3.78850662383827e-15	    1.73720000000001	   0.662659559739911
                  -8	                -3.4	              1.4764	   0.330330533730694	-1.51390428991149e-16	              1.7372	   0.662659559739909
                  -8	                -3.6	              1.4764	   0.330330533730681	1.41791701290942e-15	    1.73719999999999	   0.662659559739906
                  -8	                -3.8	              1.4764	   0.330330533730706	-1.00155998888531e-14	    1.73720000000001	    0.66265955973991