# vtk DataFile Version 3.0
Triangular mesh
ASCII
DATASET UNSTRUCTURED_GRID
POINTS 3517 double
                  -8                   -8 0.0
                   8                   -8 0.0
                  -8                    8 0.0
                   8                    8 0.0
                 0.5                    0 0.0
            0.489074             0.103956 0.0
            0.456773             0.203368 0.0
            0.404508             0.293893 0.0
            0.334565             0.371572 0.0
                0.25             0.433013 0.0
            0.154508             0.475528 0.0
           0.0522642             0.497261 0.0
          -0.0522642             0.497261 0.0
           -0.154508             0.475528 0.0
               -0.25             0.433013 0.0
           -0.334565             0.371572 0.0
           -0.404508             0.293893 0.0
           -0.456773             0.203368 0.0
           -0.489074             0.103956 0.0
                -0.5          2.83277e-16 0.0
           -0.489074            -0.103956 0.0
           -0.456773            -0.203368 0.0
           -0.404508            -0.293893 0.0
           -0.334565            -0.371572 0.0
               -0.25            -0.433013 0.0
           -0.154508            -0.475528 0.0
          -0.0522642            -0.497261 0.0
           0.0522642            -0.497261 0.0
            0.154508            -0.475528 0.0
                0.25            -0.433013 0.0
            0.334565            -0.371572 0.0
            0.404508            -0.293893 0.0
            0.456773            -0.203368 0.0
            0.489074            -0.103956 0.0
                -7.6                   -8 0.0
                -7.2                   -8 0.0
                -6.8                   -8 0.0
                -6.4                   -8 0.0
                  -6                   -8 0.0
                -5.6                   -8 0.0
                -5.2                   -8 0.0
                -4.8                   -8 0.0
                -4.4                   -8 0.0
                  -4                   -8 0.0
                -3.6                   -8 0.0
                -3.2                   -8 0.0
                -2.8                   -8 0.0
                -2.4                   -8 0.0
                  -2                   -8 0.0
                -1.6                   -8 0.0
                -1.2                   -8 0.0
                -0.8                   -8 0.0
                -0.4                   -8 0.0
                   0                   -8 0.0
                 0.4                   -8 0.0
                 0.8                   -8 0.0
                 1.2                   -8 0.0
                 1.6                   -8 0.0
                   2                   -8 0.0
                 2.4                   -8 0.0
                 2.8                   -8 0.0
                 3.2                   -8 0.0
                 3.6                   -8 0.0
                   4                   -8 0.0
                 4.4                   -8 0.0
                 4.8                   -8 0.0
                 5.2                   -8 0.0
                 5.6                   -8 0.0
                   6                   -8 0.0
                 6.4                   -8 0.0
                 6.8                   -8 0.0
                 7.2                   -8 0.0
                 7.6                   -8 0.0
                  -8                  7.6 0.0
                  -8                  7.2 0.0
                  -8                  6.8 0.0
                  -8                  6.4 0.0
                  -8                    6 0.0
                  -8                  5.6 0.0
                  -8                  5.2 0.0
                  -8                  4.8 0.0
                  -8                  4.4 0.0
                  -8                    4 0.0
                  -8                  3.6 0.0
                  -8                  3.2 0.0
                  -8                  2.8 0.0
                  -8                  2.4 0.0
                  -8                    2 0.0
                  -8                  1.6 0.0
                  -8                  1.2 0.0
                  -8                  0.8 0.0
                  -8                  0.4 0.0
                  -8                    0 0.0
                  -8                 -0.4 0.0
                  -8                 -0.8 0.0
                  -8                 -1.2 0.0
                  -8                 -1.6 0.0
                  -8                   -2 0.0
                  -8                 -2.4 0.0
                  -8                 -2.8 0.0
                  -8                 -3.2 0.0
                  -8                 -3.6 0.0
                  -8                   -4 0.0
                  -8                 -4.4 0.0
                  -8                 -4.8 0.0
                  -8                 -5.2 0.0
                  -8                 -5.6 0.0
                  -8                   -6 0.0
                  -8                 -6.4 0.0
                  -8                 -6.8 0.0
                  -8                 -7.2 0.0
                  -8                 -7.6 0.0
                   8                 -7.6 0.0
                   8                 -7.2 0.0
                   8                 -6.8 0.0
                   8                 -6.4 0.0
                   8                   -6 0.0
                   8                 -5.6 0.0
                   8                 -5.2 0.0
                   8                 -4.8 0.0
                   8                 -4.4 0.0
                   8                   -4 0.0
                   8                 -3.6 0.0
                   8                 -3.2 0.0
                   8                 -2.8 0.0
                   8                 -2.4 0.0
                   8                   -2 0.0
                   8                 -1.6 0.0
                   8                 -1.2 0.0
                   8                 -0.8 0.0
                   8                 -0.4 0.0
                   8                    0 0.0
                   8                  0.4 0.0
                   8                  0.8 0.0
                   8                  1.2 0.0
                   8                  1.6 0.0
                   8                    2 0.0
                   8                  2.4 0.0
                   8                  2.8 0.0
                   8                  3.2 0.0
                   8                  3.6 0.0
                   8                    4 0.0
                   8                  4.4 0.0
                   8                  4.8 0.0
                   8                  5.2 0.0
                   8                  5.6 0.0
                   8                    6 0.0
                   8                  6.4 0.0
                   8                  6.8 0.0
                   8                  7.2 0.0
                   8                  7.6 0.0
                 7.6                    8 0.0
                 7.2                    8 0.0
                 6.8                    8 0.0
                 6.4                    8 0.0
                   6                    8 0.0
                 5.6                    8 0.0
                 5.2                    8 0.0
                 4.8                    8 0.0
                 4.4                    8 0.0
                   4                    8 0.0
                 3.6                    8 0.0
                 3.2                    8 0.0
                 2.8                    8 0.0
                 2.4                    8 0.0
                   2                    8 0.0
                 1.6                    8 0.0
                 1.2                    8 0.0
                 0.8                    8 0.0
                 0.4                    8 0.0
                   0                    8 0.0
                -0.4                    8 0.0
                -0.8                    8 0.0
                -1.2                    8 0.0
                -1.6                    8 0.0
                  -2                    8 0.0
                -2.4                    8 0.0
                -2.8                    8 0.0
                -3.2                    8 0.0
                -3.6                    8 0.0
                  -4                    8 0.0
                -4.4                    8 0.0
                -4.8                    8 0.0
                -5.2                    8 0.0
                -5.6                    8 0.0
                  -6                    8 0.0
                -6.4                    8 0.0
                -6.8                    8 0.0
                -7.2                    8 0.0
                -7.6                    8 0.0
             7.65165              3.39378 0.0
             7.67408             -3.43689 0.0
            -7.65088              3.38158 0.0
            -7.64564             -3.39956 0.0
             2.98791             -7.69324 0.0
            -2.99455              7.65823 0.0
                  -3             -7.65359 0.0
             3.03694              7.65779 0.0
            -7.66535              1.41813 0.0
             7.66614             -1.40167 0.0
              7.6703               1.3946 0.0
            -7.65359                 -1.4 0.0
             -1.0043              7.65786 0.0
            0.993014             -7.65844 0.0
                  -1             -7.65359 0.0
             1.03052              7.59158 0.0
            -4.55053              7.65443 0.0
             4.60754             -7.66126 0.0
                 4.6              7.65359 0.0
                -4.6             -7.65359 0.0
            -7.65311             -4.99699 0.0
             7.65457               4.9978 0.0
            -7.65184              4.99965 0.0
              7.6684             -4.99906 0.0
            -7.68169             0.170873 0.0
[...]
POINT_DATA 3517
SCALARS rho double 1
LOOKUP_TABLE default
    1.47639999999992
    0.99999999999944
    1.47639999999991
    0.99999999999935
    1.51732044039147
    1.48305240400427
    1.42339624729075
    1.37425543049176
     1.3100391438885
    1.07030234337276
    0.88209048172595
   0.984222999393749
    1.04271996603198
    1.15566173493049
    1.27112801906241
    1.37878526177166
    1.47152148941568
    1.54523050814085
    1.58699236717467
    1.60228387779513
    1.59339384731757
    1.54910457683225
    1.47560199499408
    1.37919299401466
     1.2715118872037
    1.15926120021586
    1.05903899255542
   0.970812031903868
   0.894051081139621
    1.05516379390766
    1.32448920121805
    1.38163626441257
    1.43656478803839
    1.49469892866755
    1.47639999999944
    1.47639999999747
    1.47640000004313
    1.47639999954657
    1.47640000325227
    1.47639998522931
    1.47640001565877
    1.47640027458444
    1.47640208323342
    1.47634356476895
    1.47651223202815
    1.47851345743867
    1.49531289917652
    1.53076618331473
    1.52930407473625
    1.51625304189079
    1.51920083620698
    1.52712492190805
    1.53977596300533
     1.5094415814636
      1.510042381875
    1.52967654193984
    1.55035362678386
    1.56961515369942
    1.60417458232593
    1.50695064615728
   0.982711639431038
    1.00459042351331
   0.999293347216836
      1.000082671244
   0.999991300715785
    1.00000062155513
   0.999999997814769
   0.999999991008465
    1.00000000184055
   0.999999999769401
    1.00000000001844
   0.999999999998794
   0.999999999999416
    1.47639999999992
    1.47639999999998
     1.4764000000001
    1.47640000000006
    1.47640000000016
    1.47640000000017
    1.47640000000007
    1.47639999999994
    1.47639999999993
    1.47639999999998
    1.47639999999999
    1.47640000000001
              1.4764
              1.4764
              1.4764
              1.4764
              1.4764
              1.4764
              1.4764
              1.4764
              1.4764
              1.4764
              1.4764
              1.4764
              1.4764
    1.47640000000001
              1.4764
    1.47639999999999
    1.47639999999996
    1.47639999999996
    1.47639999999995
    1.47640000000003
     1.4764000000002
    1.47640000000028
    1.47640000000008
    1.47639999999979
    1.47639999999959
    1.47639999999947
    1.47639999999977
   0.999999999999525
   0.999999999999819
   0.999999999999962
   0.999999999999965
    1.00000000000002
   0.999999999999989
    1.00000000000004
                   1
   0.999999999999998
                   1
                   1
                   1
    1.00000000000001
                   1
                   1
   0.999999999999999
                   1
                   1
                   1
                   1
                   1
                   1
   0.999999999999999
   0.999999999999989
                   1
    0.99999999999999
   0.999999999999997
                   1
   0.999999999999999
                   1
                   1
                   1
    1.00000000000001
                   1
    1.00000000000001
   0.999999999999961
   0.999999999999847
   0.999999999999749
   0.999999999999556
   0.999999999999407
   0.999999999999543
    1.00000000000157
   0.999999999975693
    1.00000000022176
   0.999999997972753
    1.00000002794423
   0.999999645126557
    1.00000333340609
   0.999974448792232
    1.00011416381304
   0.999075469919813
     1.0045126459066
   0.987259556931211
    1.33497052398231
    1.37482471542597
    1.39682657542348
    1.41126671251019
     1.4121229352471
    1.43555975702214
    1.46900072360539
    1.44989605151275
    1.44433006105664
    1.43746557059702
    1.39683190855683
    1.37664288544296
     1.4198116107768
    1.46356674184434
    1.47632441812338
    1.47659877239988
    1.47639749601597
    1.47639559332427
     1.4764005631322
    1.47639995236121
    1.47640000278465
    1.47639999997805
      1.476399999983
    1.47640000000253
    1.47639999999936
                   1
                   1
              1.4764
    1.47640000000016
   0.980754521497278
    1.46029605059073
    1.47852734521006
    1.00670753069448
              1.4764
                   1
                   1
              1.4764
    1.44844957097661
    1.53793575041472
    1.53010170645489
    1.40544447397475
    1.47639852645212
    1.00000372113444
    1.00000075137359
    1.47640366453177
    1.47639999999964
   0.999999999999998
    1.47640000000008
   0.999999999999998
              1.4764
                   1
    1.47639999311509
    1.00000000012247
   0.999999993358394
    1.47640000188179
    1.47639999999943
    1.47640000000001
   0.999999999999969
                   1
    1.51033100608424
    1.55225097057358
    1.45382508889517
    1.42547589985595
    1.52812900332478
    1.38581335829702
    1.47639999999999
   0.999999999999998
              1.4764
                   1
              1.4764
   0.999999999999999
    1.47680742302383
    1.00008160481192
    1.47641270485542
    1.00017443327955
    1.47640000000014
                   1
    1.47640000000024
                   1
    1.47640000000984
    1.00000000000538
    1.00000000001995
    1.47639999996617
    1.47640000000143
   0.999999999999837
    1.47639999999925
   0.999999999999677
    1.47640000000191
   0.999999999999814
    1.00000000000025
    1.47640000000055
    1.52094058870118
    1.53246877802235
    1.53976388958321
    1.53387771726424
    1.53647421426387
    1.52472211331795
    1.52022381745384
     1.5178223276629
    1.51754248438599
    1.51496877549418
    1.51609668235115
    1.50876053703867
    1.50699036811744
    1.49864018289045
     1.4984892118549
     1.4893949918044
    1.49217154823051
    1.48253141578105
    1.47979079443921
    1.47315787051934
    1.48264539092567
    1.48152250772041
    1.48410679835576
    1.47753024897195
    1.47848671290242
    1.48151533463309
     1.4685304109317
    1.47278749114983
    1.48051332062869
     1.4689327258304
    1.53683648407124
    1.47787218658369
    1.51175030718716
    1.53074363114115
    1.20959433172652
    1.52896970646413
   0.915669438258236
    1.24634388499114
    1.46364451685527
   0.959561326028627
   0.923016519181832
    1.02210223568347
    0.96319431341931
   0.895170761800094
    1.00126913918092
    1.01867203134748
   0.997977603580365
   0.994691192898541
   0.996134991366976
     1.0012119410077
   0.997679738288175
    1.00008751286815
     1.0006086768261
    0.99988541611187
    1.00014893805233
     1.0000243802923
    1.00000842161186
   0.999900366916748
     1.2672940121348
    1.00000926572284
    1.00001203091993
     1.0000871882693
   0.999938289861296
    1.00000395512795
    1.00000730676897
   0.999998837837638
   0.999999569045397
   0.999981424523383
    1.00001290677924
   0.999998386914234
    1.00000487999271
    0.99995237667155
   0.999974738628661
    1.00025197548857
    1.00006420510978
    1.00000845485058
   0.999919692706685
    1.00008549460868
    1.00045269150383
   0.996766261805855
   0.999508091504883
    1.00879997612877
   0.997683540400308
   0.995704680421648
    1.02025221544591
   0.903628500460668
    0.96342256604785
    1.25384922252472
   0.932870041271003
    1.56820990806115
    1.02339909506759
    1.35285133900263
    1.51777471784512
   0.999950707178081
     1.5525086745437
    1.47332524168791
    1.49444013744576
    1.46582961457263
    1.46904774930859
    1.46685267425655
    1.55815279021667
    1.46848654405647
    1.46894480438569
     1.4617781218155
    1.46692285244879
    1.46387981425136
     1.4637318926796
    1.48030977213955
    1.46140833157721
    1.49991330813418
    1.45983420526153
    1.51270357842871
    1.45868195980858
    1.52291473018454
    1.47612498240439
     1.5469892413359
    1.50737977178124
    1.54636458264306
    1.51050689204449
    1.51502747327783
    1.51455698464693
    1.50411309758643
    1.52423521445522
    1.51315614743861
    1.52318335317204
    1.52374485365715
    1.52197571923137
    1.52487190107587
    1.52256349743576
    1.52289547469423
    1.52326981069356
    1.52249631047834
    1.52397272145715
    1.52550109787578
    1.52645824711362
    1.52322406813593
    1.50588462493041
    1.49107007369191
    1.51333575320838
    1.47920590950735
    1.49791474324655
    1.47380044079866
      1.483227178364
    1.47372360460024
    1.47519699522189
    1.47544274773238
    1.47340174121546
    1.47660436749498
    1.47516043345516
    1.47661217024824
    1.47671471820039
    1.47661584031036
    1.52084214559256
    1.52579026151533
    1.53107189865922
    1.47801357401814
    1.47644020553964
    1.47679906167193
    1.47633019588009
    1.47651099079649
    1.47675678628646
    1.47636690478453
    1.47634376171909
    1.47640533857617
     1.4763455941669
    1.47666094393482
    1.47639705618829
    1.47678753029538
     1.4768101544459
    1.47632888904423
    1.47653041053056
    1.47630181090053
    1.47682862742694
    1.47366995188363
     1.4752638284006
    1.47674719038312
    1.47620695421704
    1.47341345214844
    1.47371286385022
    1.48289666848125
    1.47654085005987
    1.50700261387973
    1.49374241474697
    1.52452805882447
    1.51548107606526
    1.48230421999677
    1.47656053720936
     1.5022309561563
    1.47626653011733
    1.49029465848663
    1.47425863227701
    1.52663237935116
    1.48134360944149
    1.47435692138335
    1.47583824127717
    1.47536711140026
    1.46597370079887
    1.47638103699997
    1.50036629443083
    1.52616645853258
    1.48820973132215
    1.47348289319885
    1.48436121224539
    1.51960432108084
    1.50906687021653
    1.54742920146101
    1.01233566992971
    1.56334222705642
    1.52176542799758
    1.55876342771638
    1.52743167848114
    1.52475621329061
    1.58057163993012
    1.47661504326934
    1.47667116840752
    1.47641291541099
    1.47635563888534
    1.47638953903159
    1.47640479599574
    1.47636034311986
     1.4764075780633
    1.47638598314756
    1.52562636418433
    1.52743511673718
    1.00013287547697
    1.47640525024103
    1.47640328585278
    1.47639452401131
    1.47640149797037
    1.52325896704985
    1.52261326854606
    1.52417042971537
      1.504830609227
    1.47640670273697
    1.47639924267088
    1.52297751179484
    1.52255492808689
    1.47639876902275
    1.52266215112067
    1.52308268919092
    1.47640474479098
     1.4763991876174
    1.52287245494685
    1.52000175630255
     1.5251864176731
     1.4970952270694
    1.51990736835192
    1.51821729521784
    1.51981701754817
    1.52613337076527
    1.52335574181483
    1.52662312964204
    1.50983355913068
     1.5187366329208
    1.57437826459436
    1.62413789722797
    1.65390729568258
    1.61604736596395
     1.6022218129713
    1.57095484982705
    1.57392620500066
    1.53928504864349
    1.52637431241092
    1.49479646759734
    1.49728703978959
    1.47223952216402
    1.48501958756917
     1.4627180558203
    1.58663977525807
    1.57346341674516
    1.58773170835629
    1.56840052876566
    1.59364115738173
    1.47540273199423
    1.45435530169116
     1.4982076581985
    1.50911655991348
    1.57571180379433
    1.59776286041133
    1.44114616014275
    1.43263241868076
    1.10611814644155
    1.58206349442557
    1.26763584197185
    1.60002364542688
    1.58718644077588
    1.60688921607992
    1.59908247305997
    1.61836826028916
    1.61344597933117
    1.63072613224677
    1.62596478254228
    1.64033360424095
    1.63522922916277
    1.64846841009446
    1.64477867734731
     1.6582919034656
    1.65213740207835
    1.66538025290445
    1.65857838957993
    1.44866102288793
    1.42743998633562
     1.4097535091978
    1.40502075380851
    1.38581450620937
    1.37831989408307
    1.40171504879844
    1.37136376570767
    1.35210427957428
    1.35777881940971
    1.41276270913162
    1.42303312605523
    1.45756230681975
    1.46652634087091
    1.47106546603222
    1.47442781580541
    1.47890401133127
    1.47679611380729
    1.48205597126722
    1.47932291006571
    1.48487832053843
    1.47739879936118
    1.47634096441836
    1.48197571953092
    1.31634423690364
    1.60984870545182
    1.39921832581302
    1.47637571834907
     1.5530362240631
    1.47639413908453
    1.47639519613341
    1.62922471681669
    1.66814051117062
    1.66621184260149
    1.65258467728411
    1.66257887976517
    1.65014918292614
     1.6581597050542
     1.6489802887203
    1.65371513786141
    1.64434529441228
    1.64889959627452
    1.63767494775832
    1.64152244892857
    1.62848796576551
     1.6361333389477
    1.62113354811242
    1.63093013729674
    1.61322605911204
    1.67088693051175
    1.65060811119897
    1.62510078581046
    1.60502890586044
    1.47413488117109
    1.48428213821569
    1.47669457394794
    1.45401423553939
    1.44560699362691
    1.51717974170865
    1.64890129664809
    1.52434274030346
    1.52814234978753
    1.61939044843265
     1.6004894859147
    1.63723409479712
    1.58425471391695
    1.58034738340138
    1.55953769740281
    1.55461126475601
    1.53385334089499
    1.53266272079766
    1.51511055970394
    1.51833630486256
    1.49162215081452
    1.34099828819481
    1.48946620833564
     1.4517111701775
    1.44955685112622
     1.4117429616377
    1.42499309188576
    1.39432541100631
    1.41308548290318
    1.38931851453111
    1.41059589513074
    1.38689070259011
    1.40895582605492
    1.38620264555483
    1.40993562441046
    1.38861556439756
    1.35658474945035
    1.44009350287697
    1.36421387396075
    1.54397168816863
    1.63582175270071
     1.5219403705841
    1.47636975917922
    1.47660134068245
    1.49003266321478
    1.49697473558568
    1.47640586866846
    1.47639888226189
    1.47639938078978
    1.47640006394898
    1.47639980525313
    1.47640005242926
    1.47640011678815
    1.47639997694753
    1.47639996853908
    1.47639998820192
    1.47640000612829
     1.4764000069122
    1.47639999867909
     1.4763999988983
    1.48029686822302
    1.47640000021958
     1.4764000001987
    1.47639999867487
    1.47640000040533
    1.37454094814931
    1.37346961735704
     1.6147558753344
    1.48902711089117
    1.43482769556802
     1.6789259197632
    1.47640000024416
    1.47639999994035
    1.47639999994246
    1.35061428592532
    1.47651461193021
    1.47624721818716
     1.4763678484527
    1.09472824136245
    1.47639999986754
    1.47640000030855
    1.44851927938664
    1.50019848048862
    1.52256862278461
    1.47639999997827
    1.47639999990328
    1.47640000032627
    1.47640000021621
    1.47639999998626
    1.47639999995978
     1.4764000000281
    1.47640000018684
     1.4763999989119
    1.47639999955161
     1.4764000041867
    1.47639999903641
    1.47640000115431
    1.47640000613979
    1.47639999929985
    1.47639999804533
     1.4764000057788
    1.47640000993974
    1.47639994183921
    1.47639998491107
      1.476400116533
     1.4763999596873
    1.47640022050156
    1.47640024002757
    1.47639864676125
    1.47639976574607
    1.47640114159974
    1.47639873175632
    1.47640737787422
     1.4764032905774
    1.47638524660271
    1.47640861248723
    1.47634837070969
    1.47639864446312
     1.4763890325068
     1.4764195047164
    1.47640003390618
     1.4763568179228
    1.47662094237793
    1.47661324906086
    1.47563288734867
    1.47394856354056
    1.47559821650315
    1.48574176732991
    1.50088868198796
     1.5201411223858
    1.52592816888057
    1.52588685331301
    1.52446149683704
    1.52105465994011
    1.52456722577277
    1.52468729729516
    1.52346340228939
    1.52785710903751
    1.51521850571936
    1.52302723586852
     1.5082827858944
    1.52134231709398
    1.51243305675937
    1.51618091665484
    1.48503351298469
    1.48070323238327
    1.45506137621402
    1.46613212946124
    1.45270374134946
    1.47082980691211
    1.45492818944383
    1.47345184271037
     1.4596120277628
    1.47331047110745
    1.46425516588029
    1.47104174582904
    1.46977982601706
    1.51190528917687
    1.55274447605491
    1.30740372408558
   0.969977346771753
   0.934316928162838
    1.01869707991313
    1.00864711893766
    0.99572317837603
   0.999063208307913
   0.995918120660997
    1.00062760601999
    1.00006822924149
   0.999907649388575
   0.999917121394823
    1.00001590710822
    1.00001177492373
   0.999997218924629
   0.999998199092732
    1.00000035195527
   0.999999990963107
   0.999998818574335
   0.999999981342526
     1.0000002152404
   0.999999982469976
   0.999999930541798
    1.00000000635702
    1.00000001982268
    1.00000000804544
   0.999996979485913
   0.999999997953764
   0.999999996127489
    1.00000001809376
   0.999999999823532
     1.0000000005279
   0.999999999536754
    1.47640000160004
    1.51585764552918
   0.999999999930021
    1.00000000024296
   0.999999964860685
    1.47662023400353
    1.51563758465132
    1.48981003990851
    1.43721560765659
    1.00000000000432
   0.999999999924567
    1.00000000084845
   0.999999999868389
    1.00000000001664
    1.00000000001897
    1.00000000000241
    1.00000000000022
   0.999999999997403
   0.999999999997596
    1.52693130361331
    1.51510627389302
    1.00000000001725
    1.47619434000586
    1.52271950424562
    1.00000000002633
   0.999999999996525
    1.00000000000053
    1.00000000000042
    1.53100004998437
    1.44162819245921
   0.999999999997617
    1.00000000000088
   0.999999999999876
    1.00000000000019
   0.999999999999976
    1.00000000000018
   0.999999999997957
    0.99999999999877
    1.00000000001972
    1.00000000000462
    1.00000000000023
    0.99999999999958
   0.999999999984133
    0.99999999999413
    1.00000000000029
   0.999999999993465
    1.00000000008087
     1.0000000000577
   0.999999999287047
    0.99999999962169
   0.999999999991473
    1.00000000030576
   0.999999999087862
   0.999999997794705
    1.00000001178987
    1.00000001340831
   0.999999998473064
    1.00000000423069
   0.999999946413708
   0.999999999018155
    1.00000009026801
   0.999999956947454
    1.00000000990448
   0.999999926037551
    1.00000038067439
    1.00000046601289
   0.999996794841838
   0.999999948512678
   0.999998464172754
    1.00001385333603
    1.00000060260594
   0.999972359563396
    1.00001812023423
    1.48074426143213
    1.36184095615381
    1.41142930848719
    1.47635270830703
    1.57842967285642
    1.00002840254351
   0.999890947561281
   0.999994602950392
    1.64267179217454
    1.61016159366216
    1.48382570457621
    1.47639897071118
    1.49470279568256
    1.47639999997659
    1.36210812100091
     1.5708968660666
    1.47658874837034
    1.47452855809628
    1.47278564486681
     1.5310000339414
    1.54699854947909
    1.53479043012001
    1.54294466823931
      1.537422660745
    1.53721721715203
    1.52922968340078
    1.53787056271378
    1.55401741716504
    1.43465524920332
    1.43486903350111
    1.62616950887117
    1.49024068309473
    1.47669106991123
    1.47448526810078
    1.48160760459127
    1.52812089767141
    1.52597387068234
    1.52380515186344
    1.47130284733862
    1.51597705784088
    1.52626063176987
    1.63302135865771
    1.39299826830759
    1.00032831191309
    1.47562091825117
    1.12141584028332
    1.01079098912177
   0.999999999994901
    1.52251569902935
    1.46667260878716
    1.00002329522977
   0.999997274869247
     1.6250691607098
    1.50629501603341
    1.51864572698261
    1.54213609804337
    1.58473223476566
    1.47640000447456
    1.47640704141564
   0.999999999999994
     1.0002996680411
    1.00000048225849
    1.47639996423563
   0.999999999240953
                   1
   0.999999999910547
    1.47316318545855
    1.44046754130454
    1.42978640646055
    1.36594664836832
    1.44115553054302
    1.40123629133937
   0.999999983318697
    1.47639999426896
    1.47640609297027