TITLE="Triangular mesh"
VARIABLES= "x" "y" "rho" "vx" "vy" "E" "p"
ZONE T="none",N=514,E=946,ET=TRIANGLE, F=FEPOINT
                   0	                   0	    1.07549355256325	                 0.7	                 0.3	    2.81189313024334	                   1
                   2	                   0	   0.968711586563881	                 0.7	                 0.3	    2.78092636010353	                   1
                   2	                   2	   0.924503596443222	                 0.7	                 0.3	    2.76810604296853	                   1
                   0	                   2	    1.03128828931954	                 0.7	                 0.3	    2.79907360390267	                   1
                 0.1	                   0	    1.07835775941758	                 0.7	                 0.3	     2.8127237502311	                   1
                 0.2	                   0	    1.12563795431896	                 0.7	                 0.3	     2.8264350067525	                   1
                 0.3	                   0	    1.16252991544257	                 0.7	                 0.3	    2.83713367547834	                   1
                 0.4	                   0	    1.18778601420181	                 0.7	                 0.3	    2.84445794411852	                   1
                 0.5	                   0	    1.19279752561494	                 0.7	                 0.3	    2.84591128242833	                   1
                 0.6	                   0	    1.17822009525829	                 0.7	                 0.3	     2.8416838276249	                   1
                 0.7	                   0	    1.14738471340733	                 0.7	                 0.3	    2.83274156688813	                   1
                 0.8	                   0	     1.1026596488964	                 0.7	                 0.3	    2.81977129817996	                   1
                 0.9	                   0	    1.04316158515281	                 0.7	                 0.3	    2.80251685969431	                   1
                   1	                   0	   0.981630102930732	                 0.7	                 0.3	    2.78467272984991	                   1
                 1.1	                   0	   0.925969966037899	                 0.7	                 0.3	    2.76853129015099	                   1
                 1.2	                   0	   0.874835095174779	                 0.7	                 0.3	    2.75370217760069	                   1
                 1.3	                   0	   0.835199817339347	                 0.7	                 0.3	    2.74220794702841	                   1
                 1.4	                   0	   0.812224353605423	                 0.7	                 0.3	    2.73554506254557	                   1
                 1.5	                   0	   0.807211122843202	                 0.7	                 0.3	    2.73409122562453	                   1
                 1.6	                   0	    0.82167982069472	                 0.7	                 0.3	    2.73828714800147	                   1
                 1.7	                   0	    0.85648461212851	                 0.7	                 0.3	    2.74838053751727	                   1
                 1.8	                   0	   0.900533363040058	                 0.7	                 0.3	    2.76115467528162	                   1
                 1.9	                   0	    0.94628151260943	                 0.7	                 0.3	    2.77442163865673	                   1
                   2	                 1.9	   0.884737101489218	                 0.7	                 0.3	    2.75657375943187	                   1
                   2	                 1.8	   0.840874444912047	                 0.7	                 0.3	    2.74385358902449	                   1
                   2	                 1.7	   0.810976777973891	                 0.7	                 0.3	    2.73518326561243	                   1
                   2	                 1.6	   0.799349054009794	                 0.7	                 0.3	    2.73181122566284	                   1
                   2	                 1.5	   0.807333780404638	                 0.7	                 0.3	    2.73412679631735	                   1
                   2	                 1.4	   0.834178018757961	                 0.7	                 0.3	    2.74191162543981	                   1
                   2	                 1.3	   0.877254067984934	                 0.7	                 0.3	    2.75440367971563	                   1
                   2	                 1.2	   0.932345344258739	                 0.7	                 0.3	    2.77038014983503	                   1
                   2	                 1.1	   0.994059129614203	                 0.7	                 0.3	    2.78827714758812	                   1
                   2	                   1	    1.05635444875551	                 0.7	                 0.3	     2.8063427901391	                   1
                   2	                 0.9	    1.11313340180809	                 0.7	                 0.3	    2.82280868652435	                   1
                   2	                 0.8	    1.15883806924493	                 0.7	                 0.3	    2.83606304008103	                   1
                   2	                 0.7	    1.18899455977418	                 0.7	                 0.3	    2.84480842233451	                   1
                   2	                 0.6	    1.20065094599021	                 0.7	                 0.3	    2.84818877433716	                   1
                   2	                 0.5	    1.19266621959536	                 0.7	                 0.3	    2.84587320368266	                   1
                   2	                 0.4	    1.16582198124204	                 0.7	                 0.3	    2.83808837456019	                   1
                   2	                 0.3	     1.1228124544375	                 0.7	                 0.3	    2.82561561178687	                   1
                   2	                 0.2	    1.06819073195417	                 0.7	                 0.3	    2.80977531226671	                   1
                   2	                 0.1	    1.01406185199861	                 0.7	                 0.3	     2.7940779370796	                   1
                 1.9	                   2	   0.921641230817671	                 0.7	                 0.3	    2.76727595693712	                   1
                 1.8	                   2	   0.874477707288637	                 0.7	                 0.3	    2.75359853511371	                   1
                 1.7	                   2	   0.837578392122371	                 0.7	                 0.3	    2.74289773371549	                   1
                 1.6	                   2	   0.812245124341571	                 0.7	                 0.3	    2.73555108605906	                   1
                 1.5	                   2	   0.806501979885406	                 0.7	                 0.3	    2.73388557416677	                   1
                 1.4	                   2	   0.820146876103924	                 0.7	                 0.3	    2.73784259407014	                   1
                 1.3	                   2	   0.852169768259627	                 0.7	                 0.3	    2.74712923279529	                   1
                 1.2	                   2	   0.901958579422864	                 0.7	                 0.3	    2.76156798803263	                   1
                 1.1	                   2	   0.953594550325952	                 0.7	                 0.3	    2.77654241959453	                   1
                   1	                   2	    1.01115414430072	                 0.7	                 0.3	    2.79323470184721	                   1
                 0.9	                   2	    1.07468005603343	                 0.7	                 0.3	     2.8116572162497	                   1
                 0.8	                   2	    1.12568781688521	                 0.7	                 0.3	    2.82644946689671	                   1
                 0.7	                   2	    1.16434201642583	                 0.7	                 0.3	    2.83765918476349	                   1
                 0.6	                   2	     1.1876644604875	                 0.7	                 0.3	    2.84442269354138	                   1
                 0.5	                   2	    1.19158030514739	                 0.7	                 0.3	    2.84555828849274	                   1
                 0.4	                   2	    1.17743317601105	                 0.7	                 0.3	     2.8414556210432	                   1
                 0.3	                   2	    1.14890514118217	                 0.7	                 0.3	    2.83318249094283	                   1
                 0.2	                   2	    1.10483133213192	                 0.7	                 0.3	    2.82040108631826	                   1
                 0.1	                   2	    1.05516061220732	                 0.7	                 0.3	    2.80599657754012	                   1
                   0	                 1.9	   0.986879122769397	                 0.7	                 0.3	    2.78619494560313	                   1
                   0	                 1.8	   0.933290887881578	                 0.7	                 0.3	    2.77065435748566	                   1
                   0	                 1.7	   0.877712344972444	                 0.7	                 0.3	    2.75453658004201	                   1
                   0	                 1.6	   0.833779798661577	                 0.7	                 0.3	    2.74179614161186	                   1
                   0	                 1.5	   0.806933383474059	                 0.7	                 0.3	    2.73401068120748	                   1
                   0	                 1.4	   0.799426387296186	                 0.7	                 0.3	    2.73183365231589	                   1
                   0	                 1.3	   0.811179750575486	                 0.7	                 0.3	    2.73524212766689	                   1
                   0	                 1.2	    0.84123688016686	                 0.7	                 0.3	    2.74395869524839	                   1
                   0	                 1.1	   0.886954864416303	                 0.7	                 0.3	    2.75721691068073	                   1
                   0	                   1	   0.943737879417331	                 0.7	                 0.3	    2.77368398503103	                   1
                   0	                 0.9	    1.00593984617491	                 0.7	                 0.3	    2.79172255539072	                   1
                   0	                 0.8	    1.06727451477407	                 0.7	                 0.3	    2.80950960928448	                   1
                   0	                 0.7	    1.12112325407799	                 0.7	                 0.3	    2.82512574368262	                   1
                   0	                 0.6	    1.16383709164245	                 0.7	                 0.3	    2.83751275657631	                   1
                   0	                 0.5	     1.1913648620324	                 0.7	                 0.3	     2.8454958099894	                   1
                   0	                 0.4	    1.20048336220878	                 0.7	                 0.3	    2.84814017504055	                   1
                   0	                 0.3	    1.18902395272556	                 0.7	                 0.3	    2.84481694629041	                   1
                   0	                 0.2	    1.15912583820235	                 0.7	                 0.3	    2.83614649307868	                   1
                   0	                 0.1	     1.1152606538012	                 0.7	                 0.3	    2.82342558960235	                   1
             0.95587	              1.9045	    1.08139655401463	                 0.7	                 0.3	    2.81360500066425	                   1
              1.9134	                0.95	    1.08016821538775	                 0.7	                 0.3	    2.81324878246245	                   1
           0.0866025	                0.95	   0.978566256963169	                 0.7	                 0.3	    2.78378421451932	                   1
             1.05506	           0.0841236	   0.916765369343082	                 0.7	                 0.3	    2.76586195710949	                   1
              1.9134	                1.35	   0.858153321005665	                 0.7	                 0.3	    2.74886446309164	                   1
             0.08929	              1.3456	   0.811198471670971	                 0.7	                 0.3	    2.73524755678458	                   1
             0.65103	           0.0877414	    1.13975919471728	                 0.7	                 0.3	    2.83053016646801	                   1
             1.35428	             1.91332	     0.8574062893833	                 0.7	                 0.3	    2.74864782392116	                   1
              1.9134	                0.55	    1.19139336092139	                 0.7	                 0.3	     2.8455040746672	                   1
                0.65	             1.91549	    1.18865296222372	                 0.7	                 0.3	    2.84470935904488	                   1
           0.0874891	            0.658333	    1.13702876676789	                 0.7	                 0.3	    2.82973834236269	                   1
             1.35506	           0.0867629	   0.811304161340278	                 0.7	                 0.3	    2.73527820678868	                   1
              1.9134	                1.65	   0.811131287907117	                 0.7	                 0.3	    2.73522807349306	                   1
           0.0866025	                1.65	   0.867412954221351	                 0.7	                 0.3	    2.75154975672419	                   1
           0.0866025	                0.35	    1.18914950992124	                 0.7	                 0.3	    2.84485335787716	                   1
             1.65097	           0.0961378	   0.864261573980922	                 0.7	                 0.3	    2.75063585645447	                   1
             1.65103	             1.91112	   0.812019909720412	                 0.7	                 0.3	    2.73548577381892	                   1
            0.344152	             1.92034	     1.1410409833928	                 0.7	                 0.3	    2.83090188518391	                   1
             0.34908	           0.0888543	    1.18803565307572	                 0.7	                 0.3	    2.84453033939196	                   1
              1.9134	                0.75	    1.16783428419754	                 0.7	                 0.3	    2.83867194241729	                   1
              1.9134	                0.35	    1.14154899516742	                 0.7	                 0.3	    2.83104920859855	                   1
            0.847357	           0.0850767	    1.03896235863389	                 0.7	                 0.3	    2.80129908400383	                   1
              1.9134	                1.15	   0.961880613117256	                 0.7	                 0.3	      2.778945377804	                   1
             1.14196	             1.90465	   0.972251553820465	                 0.7	                 0.3	    2.78195295060793	                   1
           0.0866025	                1.15	    0.87002217857287	                 0.7	                 0.3	    2.75230643178613	                   1
             1.91563	             1.84613	   0.869978733517387	                 0.7	                 0.3	    2.75229383272004	                   1
           0.0828993	             1.85606	   0.963730014018523	                 0.7	                 0.3	    2.77948170406537	                   1
           0.0843696	            0.153868	    1.13002379333005	                 0.7	                 0.3	    2.82770690006572	                   1
             1.91532	            0.150424	    1.04035029561816	                 0.7	                 0.3	    2.80170158572927	                   1
              1.9134	                0.85	     1.1303826299153	                 0.7	                 0.3	    2.82781096267544	                   1
             1.82679	                 0.9	    1.14579694979265	                 0.7	                 0.3	    2.83228111543987	                   1
             1.82679	                   1	    1.09974050090476	                 0.7	                 0.3	    2.81892474526238	                   1
             1.74019	                0.95	    1.15928581790553	                 0.7	                 0.3	    2.83619288719261	                   1
             1.74019	                1.05	     1.1179955937876	                 0.7	                 0.3	     2.8242187221984	                   1
             1.65359	                   1	    1.17066946260003	                 0.7	                 0.3	    2.83949414415401	                   1
             1.65359	                 1.1	    1.13469045017275	                 0.7	                 0.3	     2.8290602305501	                   1
             1.56699	                1.05	    1.17979951706628	                 0.7	                 0.3	    2.84214185994922	                   1
             1.56699	                0.95	    1.19239152419509	                 0.7	                 0.3	    2.84579354201658	                   1
             1.48038	                   1	     1.1923000475514	                 0.7	                 0.3	    2.84576701378991	                   1
             1.48038	                 0.9	    1.17922141399241	                 0.7	                 0.3	     2.8419742100578	                   1
             1.39378	                0.95	    1.16992499502135	                 0.7	                 0.3	    2.83927824855619	                   1
             1.39378	                1.05	    1.18966893667348	                 0.7	                 0.3	    2.84500399163531	                   1
             1.30718	                   1	    1.15838483432481	                 0.7	                 0.3	    2.83593160195419	                   1
             1.30718	                 0.9	    1.11673316387934	                 0.7	                 0.3	    2.82385261752501	                   1
             1.22058	                0.95	    1.09837514685713	                 0.7	                 0.3	    2.81852879258857	                   1
             1.22058	                1.05	    1.14475133863751	                 0.7	                 0.3	    2.83197788820488	                   1
             1.13397	                   1	    1.07871796909968	                 0.7	                 0.3	    2.81282821103891	                   1
             1.13397	                 0.9	    1.02052427446274	                 0.7	                 0.3	     2.7959520395942	                   1
             1.04737	                0.95	   0.998408134920538	                 0.7	                 0.3	    2.78953835912696	                   1
             1.04737	                1.05	     1.0580211502388	                 0.7	                 0.3	    2.80682613356925	                   1
             0.96077	                   1	   0.976314394303116	                 0.7	                 0.3	     2.7831311743479	                   1
             0.96077	                 1.1	    1.03655913465835	                 0.7	                 0.3	    2.80060214905092	                   1
             0.96077	                 0.9	   0.918388084932855	                 0.7	                 0.3	    2.76633254463053	                   1
            0.874167	                1.05	   0.954532912017538	                 0.7	                 0.3	    2.77681454448509	                   1
            0.874167	                1.15	    1.01461370413548	                 0.7	                 0.3	    2.79423797419929	                   1
             0.96077	                 1.2	    1.09322521219076	                 0.7	                 0.3	    2.81703531153532	                   1
            0.874167	                1.25	    1.07326400507298	                 0.7	                 0.3	    2.81124656147117	                   1
            0.787564	                 1.1	   0.933351541785832	                 0.7	                 0.3	    2.77067194711789	                   1
             0.96077	                 1.3	    1.14076575641569	                 0.7	                 0.3	    2.83082206936055	                   1
            0.874167	                1.35	     1.1247427147336	                 0.7	                 0.3	    2.82617538727274	                   1
             0.96077	                 1.4	    1.17452710524704	                 0.7	                 0.3	    2.84061286052164	                   1
            0.874167	                1.45	     1.1640105696872	                 0.7	                 0.3	    2.83756306520929	                   1
            0.787564	                 1.4	    1.10707187485481	                 0.7	                 0.3	    2.82105084370789	                   1
             1.04737	                1.35	    1.18273829578146	                 0.7	                 0.3	    2.84299410577662	                   1
             1.04737	                1.45	    1.19265961411996	                 0.7	                 0.3	    2.84587128809479	                   1
             1.13397	                 1.4	    1.19156947743085	                 0.7	                 0.3	    2.84555514845495	                   1
             1.13397	                 1.5	    1.17585358314527	                 0.7	                 0.3	    2.84099753911213	                   1
             1.22058	                1.45	     1.1656597836205	                 0.7	                 0.3	    2.83804133724995	                   1
            0.787564	                 1.5	    1.15132787741857	                 0.7	                 0.3	    2.83388508445138	                   1
            0.700962	                1.45	    1.08798677145763	                 0.7	                 0.3	    2.81551616372271	                   1
            0.787564	                   1	   0.880752221392001	                 0.7	                 0.3	    2.75541814420368	                   1
            0.700962	                1.05	   0.864176768790941	                 0.7	                 0.3	    2.75061126294937	                   1
            0.700962	                0.95	   0.828598368155165	                 0.7	                 0.3	      2.740293526765	                   1
            0.614359	                   1	   0.819635025277508	                 0.7	                 0.3	    2.73769415733048	                   1
            0.614359	                 0.9	   0.807529996328284	                 0.7	                 0.3	     2.7341836989352	                   1
            0.527757	                0.95	   0.807770438449693	                 0.7	                 0.3	    2.73425342715041	                   1
            0.527757	                1.05	   0.813053903158133	                 0.7	                 0.3	    2.73578563191586	                   1
            0.527757	                0.85	   0.821296607699803	                 0.7	                 0.3	    2.73817601623294	                   1
            0.614359	                 0.8	   0.814265272355817	                 0.7	                 0.3	    2.73613692898319	                   1
            0.527757	                0.75	   0.852431563685104	                 0.7	                 0.3	    2.74720515346868	                   1
            0.614359	                 0.7	   0.839181557615104	                 0.7	                 0.3	    2.74336265170838	                   1
            0.527757	                0.65	   0.897973466693478	                 0.7	                 0.3	    2.76041230534111	                   1
            0.614359	                 0.6	   0.879839872502999	                 0.7	                 0.3	    2.75515356302587	                   1
            0.527757	                0.55	   0.953412639140336	                 0.7	                 0.3	     2.7764896653507	                   1
            0.614359	                 0.5	   0.932202746297702	                 0.7	                 0.3	    2.77033879642633	                   1
            0.700962	                0.55	   0.863353590553793	                 0.7	                 0.3	     2.7503725412606	                   1
             1.56699	                1.15	    1.14960748047013	                 0.7	                 0.3	    2.83338616933634	                   1
             1.56699	                0.85	    1.18615090846511	                 0.7	                 0.3	    2.84398376345488	                   1
             1.48038	                 0.8	    1.14859933972282	                 0.7	                 0.3	    2.83309380851962	                   1
             1.56699	                0.75	    1.16168854482492	                 0.7	                 0.3	    2.83688967799923	                   1
             1.48038	                 0.7	    1.10343132672869	                 0.7	                 0.3	    2.81999508475132	                   1
             1.56699	                0.65	    1.12139897986694	                 0.7	                 0.3	    2.82520570416141	                   1
             1.48038	                 0.6	    1.04813873482592	                 0.7	                 0.3	    2.80396023309952	                   1
             1.39378	                0.65	    1.02641563691056	                 0.7	                 0.3	    2.79766053470406	                   1
             1.39378	                0.55	   0.966212337121098	                 0.7	                 0.3	    2.78020157776512	                   1
             1.30718	                 0.6	   0.944611048464199	                 0.7	                 0.3	    2.77393720405462	                   1
             1.30718	                 0.5	   0.890652118145026	                 0.7	                 0.3	    2.75828911426206	                   1
             1.22058	                0.55	   0.872862459285595	                 0.7	                 0.3	    2.75313011319282	                   1
             1.48038	                 0.5	   0.988199763421516	                 0.7	                 0.3	    2.78657793139224	                   1
            0.527757	                0.45	    1.01247939257941	                 0.7	                 0.3	    2.79361902384803	                   1
            0.441625	                 0.8	   0.869104608072692	                 0.7	                 0.3	    2.75204033634108	                   1
            0.441154	                 0.5	      1.034745966746	                 0.7	                 0.3	    2.80007633035634	                   1
             1.22034	            0.450402	   0.834267875763336	                 0.7	                 0.3	    2.74193768397137	                   1
             1.13394	            0.500067	   0.824202501687833	                 0.7	                 0.3	    2.73901872548947	                   1
            0.700962	                0.45	   0.911955444277766	                 0.7	                 0.3	    2.76446707884055	                   1
             1.22058	                1.55	    1.12706459191623	                 0.7	                 0.3	    2.82684873165571	                   1
              1.3072	             1.49996	    1.10966401320496	                 0.7	                 0.3	    2.82180256382944	                   1
             1.04737	                1.55	    1.18372685134098	                 0.7	                 0.3	    2.84328078688888	                   1
            0.700962	                1.55	    1.13664640944621	                 0.7	                 0.3	     2.8296274587394	                   1
            0.614359	                 1.5	    1.06773970212486	                 0.7	                 0.3	    2.80964451361621	                   1
             1.30718	             1.39999	    1.15327796161808	                 0.7	                 0.3	    2.83445060886924	                   1
             1.39379	             1.44999	    1.09080971849881	                 0.7	                 0.3	    2.81633481836466	                   1
             1.39381	             1.54995	    1.03382776206581	                 0.7	                 0.3	    2.79981005099909	                   1
             1.48039	             1.49999	    1.01186296827676	                 0.7	                 0.3	    2.79344026080026	                   1
            0.614359	                 1.4	    1.00868844273849	                 0.7	                 0.3	    2.79251964839416	                   1
            0.527757	                1.45	   0.986547551611289	                 0.7	                 0.3	    2.78609878996727	                   1
            0.527757	                1.55	    1.04659772769354	                 0.7	                 0.3	    2.80351334103113	                   1
            0.441154	                 1.5	   0.964601697554593	                 0.7	                 0.3	    2.77973449229083	                   1
            0.441154	                 1.4	   0.907795319950283	                 0.7	                 0.3	    2.76326064278558	                   1
            0.441154	                   1	   0.810477740305377	                 0.7	                 0.3	    2.73503854468856	                   1
             1.48034	             1.60008	   0.951915785981776	                 0.7	                 0.3	    2.77605557793472	                   1
             1.56698	             1.55001	   0.930764858491397	                 0.7	                 0.3	    2.76992180896251	                   1
            0.787564	                 1.6	    1.18077097366101	                 0.7	                 0.3	    2.84242358236169	                   1