TITLE="Triangular mesh"
VARIABLES= "x" "y" "rho" "vx" "vy" "E" "p"
ZONE T="none",N=514,E=946,ET=TRIANGLE, F=FEPOINT
                   0	                   0	     1.0002051283736	   0.699999999999983	   0.299999999999992	    2.79005948722833	   0.999999999999999
                   2	                   0	    1.00008660489559	   0.699999999999985	    0.29999999999999	    2.79002511541971	                   1
                   2	                   2	   0.999925045929933	   0.699999999999983	   0.299999999999996	    2.78997826331967	                   1
                   0	                   2	     1.0002484803097	   0.699999999999982	   0.299999999999993	     2.7900720592898	   0.999999999999999
                 0.1	                   0	    1.06347887710982	   0.699999999999996	   0.300000000000001	    2.80840887436184	   0.999999999999999
                 0.2	                   0	    1.11736836143634	   0.700000000000006	   0.300000000000003	    2.82403682481654	   0.999999999999997
                 0.3	                   0	    1.16253144951158	   0.700000000000005	   0.300000000000002	    2.83713412035837	                   1
                 0.4	                   0	     1.1887700736313	   0.700000000000001	                 0.3	    2.84474332135308	                   1
                 0.5	                   0	      1.200206809793	   0.699999999999998	   0.299999999999999	    2.84805997483997	                   1
                 0.6	                   0	    1.18961705517805	   0.699999999999998	   0.299999999999998	    2.84498894600163	   0.999999999999997
                 0.7	                   0	    1.16125781333073	   0.699999999999996	   0.299999999999996	     2.8367647658659	   0.999999999999997
                 0.8	                   0	    1.11725571221654	   0.699999999999986	   0.299999999999998	    2.82400415654279	                   1
                 0.9	                   0	    1.06143176729556	   0.699999999999997	                 0.3	    2.80781521251572	                   1
                   1	                   0	   0.999240589261382	   0.700000000000006	                 0.3	     2.7897797708858	   0.999999999999998
                 1.1	                   0	   0.938040445874246	   0.700000000000008	   0.300000000000007	    2.77203172930354	                   1
                 1.2	                   0	   0.882619846964922	   0.699999999999995	   0.299999999999996	    2.75595975561982	   0.999999999999998
                 1.3	                   0	   0.838491073779379	   0.700000000000004	                 0.3	    2.74316241139603	                   1
                 1.4	                   0	   0.807388925261676	   0.699999999999998	   0.299999999999998	    2.73414278832589	                   1
                 1.5	                   0	   0.799317898364961	   0.699999999999997	   0.300000000000002	    2.73180219052584	                   1
                 1.6	                   0	   0.808778892551625	   0.699999999999996	   0.299999999999999	    2.73454587883996	   0.999999999999998
                 1.7	                   0	   0.837688107047829	   0.699999999999986	   0.299999999999992	    2.74292955104387	                   1
                 1.8	                   0	   0.882634886280966	   0.699999999999993	   0.299999999999998	    2.75596411702147	   0.999999999999998
                 1.9	                   0	   0.938504133265078	   0.699999999999991	   0.300000000000013	    2.77216619864687	   0.999999999999999
                   2	                 1.9	   0.938845248543031	   0.700000000000012	    0.30000000000001	    2.77226512207748	   0.999999999999998
                   2	                 1.8	   0.883025458428869	   0.699999999999992	   0.299999999999994	    2.75607738294438	                   1
                   2	                 1.7	   0.838999913108779	   0.700000000000008	   0.300000000000009	    2.74330997480156	                   1
                   2	                 1.6	   0.810652784536378	   0.699999999999967	   0.299999999999981	    2.73508930751552	   0.999999999999999
                   2	                 1.5	   0.800882296716358	   0.700000000000025	   0.300000000000014	    2.73225586604776	                   1
                   2	                 1.4	   0.810571190139892	   0.699999999999995	   0.300000000000002	    2.73506564514056	   0.999999999999995
                   2	                 1.3	   0.838656989635867	   0.699999999999989	   0.299999999999993	     2.7432105269944	                   1
                   2	                 1.2	   0.882812880341129	   0.700000000000016	   0.300000000000009	    2.75601573529894	   0.999999999999998
                   2	                 1.1	   0.938008840219935	   0.699999999999973	   0.299999999999986	    2.77202256366375	   0.999999999999997
                   2	                   1	   0.999392230059002	   0.700000000000016	    0.30000000000001	    2.78982374671712	   0.999999999999999
                   2	                 0.9	    1.06136855235519	   0.699999999999985	   0.299999999999991	    2.80779688018299	   0.999999999999998
                   2	                 0.8	    1.11712692603347	   0.700000000000014	   0.300000000000008	    2.82396680854972	                   1
                   2	                 0.7	    1.16147113670428	   0.699999999999989	   0.299999999999995	    2.83682662964422	   0.999999999999996
                   2	                 0.6	       1.18923110467	   0.699999999999997	   0.300000000000001	    2.84487702035429	   0.999999999999997
                   2	                 0.5	     1.1995585898211	   0.699999999999995	   0.299999999999995	     2.8478719910481	   0.999999999999996
                   2	                 0.4	    1.18915290039837	   0.700000000000023	   0.300000000000011	    2.84485434111554	   0.999999999999994
                   2	                 0.3	    1.16087497989747	   0.699999999999994	   0.299999999999998	    2.83665374417025	   0.999999999999998
                   2	                 0.2	    1.11761254759451	   0.699999999999994	   0.299999999999994	    2.82410763880241	                   1
                   2	                 0.1	    1.06160153882245	   0.700000000000014	   0.300000000000009	    2.80786444625851	   0.999999999999995
                 1.9	                   2	   0.938468051500253	   0.700000000000003	   0.300000000000005	    2.77215573493506	   0.999999999999995
                 1.8	                   2	   0.883027324390724	   0.699999999999998	   0.300000000000005	    2.75607792407332	                   1
                 1.7	                   2	    0.83846331298677	   0.699999999999989	   0.299999999999991	    2.74315436076617	    1.00000000000001
                 1.6	                   2	   0.810148182011882	   0.699999999999991	   0.299999999999997	    2.73494297278343	   0.999999999999997
                 1.5	                   2	   0.799386630738686	   0.700000000000002	   0.300000000000003	    2.73182212291422	   0.999999999999999
                 1.4	                   2	   0.809439058771187	                 0.7	   0.299999999999997	    2.73473732704365	                   1
                 1.3	                   2	   0.839100859256903	   0.700000000000005	   0.300000000000002	    2.74333924918451	                   1
                 1.2	                   2	    0.88313965789283	   0.699999999999998	   0.300000000000001	    2.75611050078891	   0.999999999999997
                 1.1	                   2	   0.938608399937347	   0.700000000000006	   0.300000000000003	    2.77219643598184	                   1
                   1	                   2	   0.999457748553907	   0.700000000000004	   0.300000000000001	    2.78984274708064	                   1
                 0.9	                   2	    1.06146864512812	   0.699999999999996	   0.299999999999998	    2.80782590708715	                   1
                 0.8	                   2	    1.11686295638242	   0.699999999999991	   0.299999999999997	     2.8238902573509	                   1
                 0.7	                   2	     1.1607090296518	   0.699999999999995	   0.299999999999997	    2.83660561859901	   0.999999999999996
                 0.6	                   2	    1.18885709368909	   0.699999999999999	                 0.3	    2.84476855716982	   0.999999999999996
                 0.5	                   2	    1.19882743798876	   0.699999999999997	   0.299999999999998	    2.84765995701674	                   1
                 0.4	                   2	    1.18873941974269	   0.700000000000002	   0.300000000000001	    2.84473443172538	                   1
                 0.3	                   2	    1.16119016694342	   0.700000000000004	   0.300000000000003	    2.83674514841359	   0.999999999999999
                 0.2	                   2	     1.1172838614132	   0.700000000000009	   0.300000000000003	    2.82401231980983	   0.999999999999998
                 0.1	                   2	    1.06245287239929	   0.699999999999998	   0.300000000000005	    2.80811133299579	   0.999999999999998
                   0	                 1.9	   0.938789190071404	   0.700000000000019	   0.300000000000014	    2.77224886512073	                   1
                   0	                 1.8	   0.882495572722401	   0.699999999999991	   0.299999999999998	     2.7559237160895	                   1
                   0	                 1.7	   0.838399137154447	    0.70000000000001	   0.300000000000005	     2.7431357497748	                   1
                   0	                 1.6	   0.809622037811784	   0.699999999999967	   0.299999999999977	    2.73479039096539	   0.999999999999999
                   0	                 1.5	   0.799879888664803	   0.700000000000027	   0.300000000000017	    2.73196516771281	                   1
                   0	                 1.4	   0.809771237665483	   0.699999999999999	   0.300000000000004	    2.73483365892299	   0.999999999999999
                   0	                 1.3	   0.837575777951212	   0.699999999999985	   0.299999999999992	    2.74289697560584	                   1
                   0	                 1.2	   0.882020665164197	   0.700000000000016	    0.30000000000001	    2.75578599289763	   0.999999999999999
                   0	                 1.1	   0.937440567416802	   0.699999999999974	   0.299999999999982	    2.77185776455084	   0.999999999999997
                   0	                   1	   0.999047871268586	   0.700000000000016	   0.300000000000012	     2.7897238826679	   0.999999999999998
                   0	                 0.9	    1.06149021277164	   0.699999999999987	    0.29999999999999	    2.80783216170376	                   1
                   0	                 0.8	     1.1176552956126	   0.700000000000016	    0.30000000000001	    2.82412003572767	   0.999999999999999
                   0	                 0.7	    1.16242441784784	   0.699999999999989	   0.299999999999992	    2.83710308117586	   0.999999999999999
                   0	                 0.6	     1.1904937490826	   0.700000000000001	                 0.3	    2.84524318723395	   0.999999999999998
                   0	                 0.5	    1.20091873666075	   0.699999999999991	   0.299999999999995	     2.8482664336316	   0.999999999999998
                   0	                 0.4	    1.18971757242487	   0.700000000000021	   0.300000000000011	    2.84501809600323	   0.999999999999997
                   0	                 0.3	      1.162135418314	   0.699999999999995	   0.299999999999999	    2.83701927131105	   0.999999999999997
                   0	                 0.2	    1.11842355206554	   0.699999999999993	   0.299999999999995	      2.824342830099	                   1
                   0	                 0.1	    1.06243380332474	   0.700000000000013	   0.300000000000009	    2.80810580296418	   0.999999999999996
             0.95587	              1.9045	    1.08464826057591	   0.700000000000013	   0.300000000000003	    2.81454799556703	                   1
              1.9134	                0.95	    1.08303522904171	   0.700000000000012	   0.300000000000004	     2.8140802164221	   0.999999999999999
           0.0866025	                0.95	   0.976486353453052	   0.699999999999983	   0.299999999999989	    2.78318104250137	   0.999999999999999
             1.05506	           0.0841236	   0.915050384754807	   0.699999999999997	   0.299999999999999	    2.76536461157889	   0.999999999999999
              1.9134	                1.35	    0.85275995741634	   0.699999999999992	   0.299999999999995	    2.74730038765073	   0.999999999999998
             0.08929	              1.3456	    0.80401344199455	   0.699999999999984	   0.299999999999995	    2.73316389817841	   0.999999999999999
             0.65103	           0.0877414	    1.14613880206069	   0.700000000000002	   0.300000000000003	     2.8323802525976	   0.999999999999999
             1.35428	             1.91332	   0.851204913206723	   0.699999999999994	   0.299999999999997	    2.74684942482994	   0.999999999999997
              1.9134	                0.55	    1.19800490770846	   0.699999999999999	   0.300000000000002	    2.84742142323545	   0.999999999999997
                0.65	             1.91549	    1.19554371161386	   0.699999999999991	    0.29999999999999	    2.84670767636801	                   1
           0.0874891	            0.658333	    1.14304033046207	   0.699999999999997	                 0.3	      2.831481695834	                   1
             1.35506	           0.0867629	   0.802733184104142	   0.699999999999993	   0.299999999999998	    2.73279262339021	                   1
              1.9134	                1.65	   0.804243681501227	   0.700000000000012	   0.300000000000018	    2.73323066763537	   0.999999999999999
           0.0866025	                1.65	   0.852535032993894	   0.699999999999972	    0.29999999999999	    2.74723515956821	   0.999999999999999
           0.0866025	                0.35	    1.19355425516266	   0.699999999999994	   0.299999999999999	    2.84613073399717	                   1
             1.65097	           0.0961378	   0.857530938738056	   0.700000000000006	   0.299999999999995	    2.74868397223403	   0.999999999999998
             1.65103	             1.91112	   0.804321785908101	   0.700000000000004	   0.300000000000001	    2.73325331791335	                   1
            0.344152	             1.92034	    1.14717172617587	   0.699999999999999	   0.299999999999998	      2.832679800591	   0.999999999999999
             0.34908	           0.0888543	    1.19700237564822	   0.700000000000002	   0.300000000000004	    2.84713068893798	   0.999999999999999
              1.9134	                0.75	    1.17394853665118	   0.700000000000022	   0.300000000000013	    2.84044507562886	   0.999999999999999
              1.9134	                0.35	    1.14702293957881	   0.700000000000014	   0.300000000000006	    2.83263665247788	                   1
            0.847357	           0.0850767	    1.04181162591742	   0.699999999999999	   0.299999999999996	    2.80212537151605	                   1
              1.9134	                1.15	   0.960130348738746	    0.70000000000001	   0.300000000000008	    2.77843780113423	   0.999999999999995
             1.14196	             1.90465	   0.970054342615675	   0.699999999999994	   0.299999999999994	    2.78131575935854	                   1
           0.0866025	                1.15	   0.864315126873952	   0.699999999999974	   0.299999999999986	    2.75065138679342	   0.999999999999998
             1.91563	             1.84613	   0.864523098618488	   0.700000000000025	   0.300000000000014	    2.75071169859938	                   1
           0.0828993	             1.85606	   0.962176984668821	   0.699999999999995	   0.299999999999999	    2.77903132555395	   0.999999999999999
           0.0843696	            0.153868	      1.135711346526	   0.700000000000012	   0.300000000000005	    2.82935629049255	                   1
             1.91532	            0.150424	    1.04158754222741	   0.699999999999992	   0.299999999999998	    2.80206038724594	   0.999999999999998
              1.9134	                0.85	    1.13589558883465	   0.699999999999983	   0.299999999999993	    2.82940972076204	                   1
             1.82679	                 0.9	    1.15192267423751	   0.700000000000008	   0.300000000000003	    2.83405757552889	                   1
             1.82679	                   1	     1.1028848006402	   0.699999999999988	                 0.3	    2.81983659218565	                   1
             1.74019	                0.95	    1.16481697264754	   0.700000000000003	   0.299999999999995	    2.83779692206778	   0.999999999999998
             1.74019	                1.05	    1.12188507457459	   0.699999999999993	   0.299999999999998	    2.82534667162663	                   1
             1.65359	                   1	    1.17651834539794	   0.699999999999995	   0.300000000000004	     2.8411903201654	                   1
             1.65359	                 1.1	    1.13946093361015	                 0.7	   0.300000000000002	    2.83044367074695	                   1
             1.56699	                1.05	    1.18616360301298	   0.700000000000005	   0.300000000000001	    2.84398744487377	   0.999999999999999
             1.56699	                0.95	    1.19936045000897	   0.700000000000002	                 0.3	     2.8478145305026	   0.999999999999999
             1.48038	                   1	    1.19926021851212	   0.699999999999997	   0.299999999999999	    2.84778546336851	                   1
             1.48038	                 0.9	    1.18606684549139	   0.700000000000001	   0.300000000000002	     2.8439593851925	   0.999999999999999
             1.39378	                0.95	    1.17588573739902	   0.699999999999996	   0.299999999999999	    2.84100686384571	   0.999999999999997
             1.39378	                1.05	    1.19692003155021	   0.699999999999999	   0.299999999999997	    2.84710680914956	                   1
             1.30718	                   1	    1.16444032459101	   0.699999999999995	   0.300000000000002	    2.83768769413138	   0.999999999999998
             1.30718	                 0.9	    1.12047760892839	   0.699999999999998	   0.299999999999998	    2.82493850658923	                   1
             1.22058	                0.95	    1.10217393748875	   0.699999999999994	   0.299999999999998	    2.81963044187173	                   1
             1.22058	                1.05	    1.15016588270306	   0.700000000000009	   0.300000000000004	     2.8335481059839	                   1
             1.13397	                   1	    1.08177025761141	   0.700000000000003	   0.300000000000005	    2.81371337470731	   0.999999999999999
             1.13397	                 0.9	    1.02150686958531	                 0.7	   0.299999999999998	    2.79623699217974	                   1
             1.04737	                0.95	   0.998494505401147	   0.700000000000004	   0.300000000000004	    2.78956340656634	                   1
             1.04737	                1.05	    1.06067740907606	   0.699999999999994	   0.299999999999998	    2.80759644863206	                   1
             0.96077	                   1	   0.976272457218356	   0.699999999999986	   0.299999999999998	    2.78311901259331	   0.999999999999998
             0.96077	                 1.1	    1.03806279177607	   0.700000000000003	   0.300000000000002	    2.80103820961506	   0.999999999999997
             0.96077	                 0.9	   0.915465515461006	   0.700000000000006	   0.300000000000008	    2.76548499948369	   0.999999999999999
            0.874167	                1.05	    0.95330832315132	   0.700000000000009	   0.300000000000004	     2.7764594137139	                   1
            0.874167	                1.15	    1.01524884002494	   0.699999999999993	   0.300000000000002	    2.79442216360723	   0.999999999999999
             0.96077	                 1.2	     1.0966498674071	   0.700000000000001	   0.299999999999997	    2.81802846154806	                   1
            0.874167	                1.25	    1.07642797029991	   0.700000000000007	   0.300000000000005	    2.81216411138697	   0.999999999999997
            0.787564	                 1.1	   0.931084092670111	   0.699999999999997	   0.299999999999995	    2.77001438687433	                   1
             0.96077	                 1.3	    1.14633550365644	   0.700000000000011	   0.300000000000006	    2.83243729606038	                   1
            0.874167	                1.35	    1.12936152413507	                 0.7	   0.299999999999997	    2.82751484199916	   0.999999999999997
             0.96077	                 1.4	    1.18077014410093	   0.700000000000002	   0.300000000000001	    2.84242334178927	   0.999999999999997
            0.874167	                1.45	    1.16993361917705	   0.699999999999996	   0.300000000000001	    2.83928074956135	                   1
            0.787564	                 1.4	    1.11088950305942	   0.699999999999996	   0.300000000000001	    2.82215795588722	   0.999999999999997
             1.04737	                1.35	    1.18967174135512	   0.700000000000009	   0.300000000000001	      2.845004804993	                   1
             1.04737	                1.45	    1.19944843217094	   0.699999999999994	                 0.3	    2.84784004532958	                   1
             1.13397	                 1.4	    1.19859814541042	   0.700000000000012	   0.300000000000012	    2.84759346216903	   0.999999999999999
             1.13397	                 1.5	    1.18204612855981	   0.699999999999998	   0.299999999999999	    2.84279337728234	   0.999999999999999
             1.22058	                1.45	    1.17149368264169	   0.700000000000013	   0.300000000000011	     2.8397331679661	                   1
            0.787564	                 1.5	    1.15763696013477	    0.69999999999999	   0.299999999999995	    2.83571471843907	   0.999999999999997
            0.700962	                1.45	    1.09206033388496	   0.699999999999993	   0.299999999999994	    2.81669749682663	                   1
            0.787564	                   1	   0.876884542082845	   0.700000000000001	   0.300000000000004	    2.75429651720403	   0.999999999999999
            0.700962	                1.05	   0.859341941262795	   0.700000000000002	   0.299999999999998	    2.74920916296621	                   1
            0.700962	                0.95	   0.822492498010937	   0.699999999999999	   0.299999999999998	    2.73852282442317	                   1
            0.614359	                   1	   0.813165315235514	   0.699999999999995	   0.300000000000001	    2.73581794141829	   0.999999999999998
            0.614359	                 0.9	   0.800454246990285	   0.700000000000004	   0.300000000000003	    2.73213173162718	   0.999999999999999
            0.527757	                0.95	   0.801056104152858	   0.699999999999992	   0.299999999999995	    2.73230627020432	   0.999999999999998
            0.527757	                1.05	   0.806458166877806	   0.700000000000014	   0.300000000000007	    2.73387286839457	                   1
            0.527757	                0.85	   0.814901870792312	   0.700000000000003	   0.300000000000004	    2.73632154252977	                   1
            0.614359	                 0.8	   0.806456579344434	   0.699999999999978	    0.29999999999999	    2.73387240800987	   0.999999999999999
            0.527757	                0.75	   0.846222660567528	   0.699999999999984	   0.299999999999993	    2.74540457156457	                   1
            0.614359	                 0.7	   0.832906475416788	   0.700000000000019	   0.300000000000009	    2.74154287787088	   0.999999999999999
            0.527757	                0.65	   0.894070144338021	   0.700000000000019	   0.300000000000006	    2.75928034185804	   0.999999999999998
            0.614359	                 0.6	   0.875805565366144	   0.699999999999998	   0.300000000000001	    2.75398361395618	   0.999999999999999
            0.527757	                0.55	    0.95151729393363	   0.699999999999998	                 0.3	    2.77594001524075	   0.999999999999999
            0.614359	                 0.5	   0.929028433236759	   0.699999999999996	   0.299999999999998	    2.76941824563866	   0.999999999999999
            0.700962	                0.55	   0.857960282662551	   0.699999999999992	   0.299999999999995	    2.74880848197213	   0.999999999999999
             1.56699	                1.15	    1.15506076114406	   0.699999999999989	   0.299999999999993	    2.83496762073176	   0.999999999999999
             1.56699	                0.85	    1.19286595068494	   0.700000000000001	   0.300000000000002	    2.84593112569864	                   1
             1.48038	                 0.8	    1.15431666542201	   0.699999999999999	   0.300000000000004	    2.83475183297238	   0.999999999999997
             1.56699	                0.75	    1.16766745160537	   0.699999999999997	   0.300000000000001	    2.83862356096556	                   1
             1.48038	                 0.7	     1.1076828110401	   0.700000000000007	   0.300000000000002	    2.82122801520163	   0.999999999999998
             1.56699	                0.65	    1.12644273634406	   0.699999999999996	   0.299999999999994	    2.82666839353977	                   1
             1.48038	                 0.6	    1.05097229090334	   0.699999999999993	   0.299999999999995	    2.80478196436196	                   1
             1.39378	                0.65	    1.02778156228113	   0.700000000000009	   0.300000000000001	    2.79805665306153	   0.999999999999998
             1.39378	                0.55	   0.965513362445769	   0.699999999999992	   0.299999999999996	    2.77999887510926	   0.999999999999998
             1.30718	                 0.6	   0.942131473690513	   0.700000000000005	   0.300000000000002	    2.77321812737026	                   1
             1.30718	                 0.5	   0.886035709545721	   0.699999999999994	   0.299999999999997	    2.75695035576826	                   1
             1.22058	                0.55	   0.867482198165606	   0.700000000000002	   0.300000000000001	    2.75156983746803	   0.999999999999999
             1.48038	                 0.5	   0.988509874179417	   0.700000000000011	   0.300000000000007	    2.78666786351204	                   1
            0.527757	                0.45	    1.01332830075332	   0.699999999999994	   0.300000000000001	    2.79386520721846	   0.999999999999999
            0.441625	                 0.8	   0.862472933024258	   0.699999999999999	                 0.3	    2.75011715057703	   0.999999999999999
            0.441154	                 0.5	    1.03625455257289	   0.699999999999995	   0.299999999999998	    2.80051382024614	                   1
             1.22034	            0.450402	   0.828193423911256	   0.699999999999991	   0.299999999999993	    2.74017609293425	   0.999999999999997
             1.13394	            0.500067	   0.817822983386817	   0.700000000000006	   0.300000000000004	    2.73716866518218	                   1
            0.700962	                0.45	   0.908507222674585	   0.700000000000003	   0.300000000000001	    2.76346709457563	   0.999999999999999
             1.22058	                1.55	    1.13171400807094	   0.700000000000005	   0.300000000000002	    2.82819706234058	                   1
              1.3072	             1.49996	    1.11329470984955	   0.700000000000017	    0.30000000000001	    2.82285546585638	   0.999999999999997
             1.04737	                1.55	     1.1903280918526	                 0.7	   0.300000000000001	    2.84519514663726	                   1
            0.700962	                1.55	    1.14083069402068	   0.700000000000006	   0.300000000000005	    2.83084090126601	                   1
            0.614359	                 1.5	    1.06968098800504	    0.70000000000001	   0.300000000000006	    2.81020748652146	   0.999999999999998
             1.30718	             1.39999	    1.15884140719413	   0.700000000000002	   0.300000000000001	     2.8360640080863	   0.999999999999998
             1.39379	             1.44999	    1.09399989354316	                 0.7	   0.299999999999998	    2.81725996912751	   0.999999999999999
             1.39381	             1.54995	    1.03442977417696	   0.700000000000004	   0.300000000000005	    2.79998463451134	    1.00000000000001
             1.48039	             1.49999	    1.01173449482751	   0.700000000000001	   0.300000000000001	    2.79340300349997	   0.999999999999998
            0.614359	                 1.4	    1.00971443311548	   0.699999999999988	   0.299999999999998	    2.79281718560347	   0.999999999999997
            0.527757	                1.45	   0.986031151711846	   0.700000000000014	   0.300000000000002	    2.78594903399645	                   1
            0.527757	                1.55	    1.04884984499214	   0.699999999999986	   0.299999999999993	    2.80416645504771	                   1
            0.441154	                 1.5	   0.963474964861074	   0.699999999999991	   0.299999999999995	     2.7794077398097	                   1
            0.441154	                 1.4	   0.904959348377061	   0.700000000000005	   0.300000000000007	    2.76243821102935	   0.999999999999999
            0.441154	                   1	   0.804217772418603	   0.700000000000015	   0.300000000000011	    2.73322315400141	                   1
             1.48034	             1.60008	   0.949377727257766	   0.700000000000016	   0.300000000000007	    2.77531954090477	                   1
             1.56698	             1.55001	    0.92717658939532	   0.700000000000005	   0.299999999999998	    2.76888121092465	                   1
            0.787564	                 1.6	    1.18631663376805	   0.700000000000009	   0.300000000000003	    2.84403182379274	   0.999999999999998