# vtk DataFile Version 3.0
Tetrahedral mesh
ASCII
DATASET UNSTRUCTURED_GRID
POINTS 178 double
                   0                    0                    2
                   0                    0                    0
                   0                    2                    2
                   0                    2                    0
                   2                    0                    2
                   2                    0                    0
                   2                    2                    2
                   2                    2                    0
                   0                    0                  0.4
                   0                    0                  0.8
                   0                    0                  1.2
                   0                    0                  1.6
                   0                  0.4                    2
                   0                  0.8                    2
                   0                  1.2                    2
                   0                  1.6                    2
                   0                    2                  0.4
                   0                    2                  0.8
                   0                    2                  1.2
                   0                    2                  1.6
                   0                  0.4                    0
                   0                  0.8                    0
                   0                  1.2                    0
                   0                  1.6                    0
                   2                    0                  0.4
                   2                    0                  0.8
                   2                    0                  1.2
                   2                    0                  1.6
                   2                  0.4                    2
                   2                  0.8                    2
                   2                  1.2                    2
                   2                  1.6                    2
                   2                    2                  0.4
                   2                    2                  0.8
                   2                    2                  1.2
                   2                    2                  1.6
                   2                  0.4                    0
                   2                  0.8                    0
                   2                  1.2                    0
                   2                  1.6                    0
                 0.4                    0                    0
                 0.8                    0                    0
                 1.2                    0                    0
                 1.6                    0                    0
                 0.4                    0                    2
                 0.8                    0                    2
                 1.2                    0                    2
                 1.6                    0                    2
                 0.4                    2                    0
                 0.8                    2                    0
                 1.2                    2                    0
                 1.6                    2                    0
                 0.4                    2                    2
                 0.8                    2                    2
                 1.2                    2                    2
                 1.6                    2                    2
                   0                  0.4                  0.4
                   0                  0.8                  0.4
                   0                  1.2                  0.4
                   0                  1.6                  0.4
                   0                  0.4                  0.8
                   0                  0.8                  0.8
                   0                  1.2                  0.8
                   0                  1.6                  0.8
                   0                  0.4                  1.2
                   0                  0.8                  1.2
                   0                  1.2                  1.2
                   0                  1.6                  1.2
                   0                  0.4                  1.6
                   0                  0.8                  1.6
                   0                  1.2                  1.6
                   0                  1.6                  1.6
                   2                  0.4                  0.4
                   2                  0.8                  0.4
                   2                  1.2                  0.4
                   2                  1.6                  0.4
                   2                  0.4                  0.8
                   2                  0.8                  0.8
                   2                  1.2                  0.8
                   2                  1.6                  0.8
                   2                  0.4                  1.2
                   2                  0.8                  1.2
                   2                  1.2                  1.2
                   2                  1.6                  1.2
                   2                  0.4                  1.6
                   2                  0.8                  1.6
                   2                  1.2                  1.6
                   2                  1.6                  1.6
                 0.4                    0                  0.4
                 0.4                    0                  0.8
                 0.4                    0                  1.2
                 0.4                    0                  1.6
                 0.8                    0                  0.4
                 0.8                    0                  0.8
                 0.8                    0                  1.2
                 0.8                    0                  1.6
                 1.2                    0                  0.4
                 1.2                    0                  0.8
                 1.2                    0                  1.2
                 1.2                    0                  1.6
                 1.6                    0                  0.4
                 1.6                    0                  0.8
                 1.6                    0                  1.2
                 1.6                    0                  1.6
                 0.4                    2                  0.4
                 0.4                    2                  0.8
                 0.4                    2                  1.2
                 0.4                    2                  1.6
                 0.8                    2                  0.4
                 0.8                    2                  0.8
                 0.8                    2                  1.2
                 0.8                    2                  1.6
                 1.2                    2                  0.4
                 1.2                    2                  0.8
                 1.2                    2                  1.2
                 1.2                    2                  1.6
                 1.6                    2                  0.4
                 1.6                    2                  0.8
                 1.6                    2                  1.2
                 1.6                    2                  1.6
                 0.4                  0.4                    0
                 0.8                  0.4                    0
                 1.2                  0.4                    0
                 1.6                  0.4                    0
                 0.4                  0.8                    0
                 0.8                  0.8                    0
                 1.2                  0.8                    0
                 1.6                  0.8                    0
                 0.4                  1.2                    0
                 0.8                  1.2                    0
                 1.2                  1.2                    0
                 1.6                  1.2                    0
                 0.4                  1.6                    0
                 0.8                  1.6                    0
                 1.2                  1.6                    0
                 1.6                  1.6                    0
                 0.4                  0.4                    2
                 0.8                  0.4                    2
                 1.2                  0.4                    2
                 1.6                  0.4                    2
                 0.4                  0.8                    2
                 0.8                  0.8                    2
                 1.2                  0.8                    2
                 1.6                  0.8                    2
                 0.4                  1.2                    2
                 0.8                  1.2                    2
                 1.2                  1.2                    2
                 1.6                  1.2                    2
                 0.4                  1.6                    2
                 0.8                  1.6                    2
                 1.2                  1.6                    2
                 1.6                  1.6                    2
   0.214618370086772     1.86736337418972    0.132050051478219
    0.14520937108617     1.78358511734907    0.216359517279464
   0.103650992704651     0.57854564054051     1.48032615432547
   0.243754485506024     1.43194258657138     1.54443597697061
   0.587555252460512   0.0778649938950625     1.54479400769398
[...]
POINT_DATA 178
SCALARS rho double 1
LOOKUP_TABLE default
    1.00420501272651
    1.02805018309078
   0.995794987273487
    1.00452971084126
   0.995794987273473
    1.00420501272651
    0.97194981690919
   0.995794987273489
    1.21708564618185
    1.12400000249254
   0.859550569963612
   0.789197476044421
    1.21273400290823
     1.1314768443601
   0.868523155639893
    0.78764417092059
    1.21085646985379
     1.1314768443601
   0.854899521489981
   0.793072552412044
    1.22222537019475
    1.12400000249254
    0.85955056996361
   0.775868293756266
    1.21580534655308
    1.13147684436011
    0.86852315563989
   0.784194653446919
    1.21080252395555
    1.14044943003637
   0.875999997507452
   0.777774629805246
    1.21080252395557
    1.14044943003639
   0.875999997507462
   0.782914353818145
    1.21229532621763
    1.13224596316845
   0.867754036831556
   0.785291496876084
    1.21708564618185
    1.12400000249254
   0.859550569963614
   0.789197476044424
    1.21272623784845
    1.14980869190051
   0.868523155639883
   0.787265997091766
    1.21087050669715
    1.12935134124541
    0.87064507974091
   0.787265997091763
    1.22630997616737
    1.19571601625794
   0.875999997507459
    0.78291435381815
    1.12054705425889
   0.783474809619668
   0.775632255125554
    1.02156191422657
   0.778837400526769
   0.768705236136955
    1.06839725433947
     1.2527234734198
   0.773289863225556
    1.00605530753387
     1.2458589901866
    1.10831826707752
    1.01748806526364
    1.23286268871194
    1.12903085601063
   0.836452632760023
    1.17397469951101
   0.882780620328737
   0.766257667466436
   0.956509572723661
   0.878778131873212
    0.75823308352566
   0.982232150065667
    1.22030139168072
   0.763648293474504
    0.98769274305922
    1.21370689555399
    1.15731407862702
   0.977407355397433
    1.22211309944221
     1.2062992879244
   0.895716370657753
    1.12268861744787
    0.81827348457211
   0.776296235663135
    1.01420091979393
   0.861003036387027
    0.77682766010137
    1.00449176789647
    1.22666351245261
   0.781509437294801
      1.062705581047
    1.24785945201262
    1.12696015599077
    1.02259264460258
     1.2603449360355
    1.11733106002797
   0.821781815408727
    1.19316493267543
   0.868327400860021
   0.770798474906605
   0.994659697820342
   0.881662980403211
   0.753026174284026
   0.998756172715998
    1.22694327161547
   0.739760339821918
   0.985456488654463
    1.21773933437842
    1.19408052833289
   0.970885137039761
    1.21745888030098
    1.15750035200194
     0.8866535719286
     1.1189985071847
   0.859447834264887
   0.782676889209428
    1.03856135463328
   0.803279939399537
   0.790488336885304
    1.09148134621901
     1.2519535699666
   0.772003755176712
    1.10779263448777
    1.26266150078281
    1.11623182851469
    1.02674981883223
    1.25755788519097
    1.11980523657651
   0.827797623261109
    1.18579566728935
   0.894554869701673
   0.749678211692106
   0.968204227406155
   0.879274736900678
   0.748663544459794
   0.941847057631963
    1.22853172773453
   0.753224422510741
   0.951042048981954
    1.22848965326188
    1.22404042850935
   0.965617078531556
    1.23023404897377
    1.18750499381536
   0.891131932343624
    1.13931518322212
    1.10113017695821
     1.1237707487998
   0.844601035232263
    1.18267715724899
    1.00155559555437
   0.784880505041997
    1.21496017040797
     1.0591876714988
    1.20737451766754
   0.788945709173122
   0.871620727076403
    1.10809410721012
    1.13820785858806
    1.25188894131149
    0.87519017005714
   0.759748269013899
    1.24811707688774
   0.803208914801979
    1.07515740408754
    1.11316697357456
    1.26161247061026
    1.16314408769261
    1.06279473063333
   0.783500258716264
   0.812982611800825
VECTORS velocity double
                 0.4                  0.3                  0.3
                 0.4                  0.3                  0.3
                 0.4                  0.3                  0.3
                 0.4                  0.3                  0.3
                 0.4                  0.3                  0.3
                 0.4                  0.3                  0.3
                 0.4                  0.3                  0.3
                 0.4                  0.3                  0.3
                 0.4                  0.3                  0.3
                 0.4                  0.3                  0.3
                 0.4                  0.3                  0.3
                 0.4                  0.3                  0.3
                 0.4                  0.3                  0.3
                 0.4                  0.3                  0.3
                 0.4                  0.3                  0.3
                 0.4                  0.3                  0.3
                 0.4                  0.3                  0.3
                 0.4                  0.3                  0.3
                 0.4                  0.3                  0.3
                 0.4                  0.3                  0.3
                 0.4                  0.3                  0.3
                 0.4                  0.3                  0.3
                 0.4                  0.3                  0.3
                 0.4                  0.3                  0.3
                 0.4                  0.3                  0.3
                 0.4                  0.3                  0.3
                 0.4                  0.3                  0.3
                 0.4                  0.3                  0.3
                 0.4                  0.3                  0.3
                 0.4                  0.3                  0.3
                 0.4                  0.3                  0.3
                 0.4                  0.3                  0.3
                 0.4                  0.3                  0.3
                 0.4                  0.3                  0.3
                 0.4                  0.3                  0.3
                 0.4                  0.3                  0.3
                 0.4                  0.3                  0.3
                 0.4                  0.3                  0.3
                 0.4                  0.3                  0.3
                 0.4                  0.3                  0.3
                 0.4                  0.3                  0.3
                 0.4                  0.3                  0.3
                 0.4                  0.3                  0.3
                 0.4                  0.3                  0.3
                 0.4                  0.3                  0.3
                 0.4                  0.3                  0.3
                 0.4                  0.3                  0.3
                 0.4                  0.3                  0.3
                 0.4                  0.3                  0.3
                 0.4                  0.3                  0.3
                 0.4                  0.3                  0.3
                 0.4                  0.3                  0.3
                 0.4                  0.3                  0.3
                 0.4                  0.3                  0.3
                 0.4                  0.3                  0.3
                 0.4                  0.3                  0.3
                 0.4                  0.3                  0.3
                 0.4                  0.3                  0.3
                 0.4                  0.3                  0.3
                 0.4                  0.3                  0.3
                 0.4                  0.3                  0.3
                 0.4                  0.3                  0.3
                 0.4                  0.3                  0.3
                 0.4                  0.3                  0.3
                 0.4                  0.3                  0.3
                 0.4                  0.3                  0.3
                 0.4                  0.3                  0.3
                 0.4                  0.3                  0.3
                 0.4                  0.3                  0.3
                 0.4                  0.3                  0.3
                 0.4                  0.3                  0.3
                 0.4                  0.3                  0.3
                 0.4                  0.3                  0.3
                 0.4                  0.3                  0.3
                 0.4                  0.3                  0.3
                 0.4                  0.3                  0.3
                 0.4                  0.3                  0.3
                 0.4                  0.3                  0.3
                 0.4                  0.3                  0.3
                 0.4                  0.3                  0.3
                 0.4                  0.3                  0.3
                 0.4                  0.3                  0.3
                 0.4                  0.3                  0.3
                 0.4                  0.3                  0.3
                 0.4                  0.3                  0.3
                 0.4                  0.3                  0.3
                 0.4                  0.3                  0.3
                 0.4                  0.3                  0.3
                 0.4                  0.3                  0.3
                 0.4                  0.3                  0.3
                 0.4                  0.3                  0.3
                 0.4                  0.3                  0.3
                 0.4                  0.3                  0.3
                 0.4                  0.3                  0.3
                 0.4                  0.3                  0.3
                 0.4                  0.3                  0.3
                 0.4                  0.3                  0.3
                 0.4                  0.3                  0.3
                 0.4                  0.3                  0.3
                 0.4                  0.3                  0.3
                 0.4                  0.3                  0.3
                 0.4                  0.3                  0.3
                 0.4                  0.3                  0.3
                 0.4                  0.3                  0.3
                 0.4                  0.3                  0.3
                 0.4                  0.3                  0.3
                 0.4                  0.3                  0.3
                 0.4                  0.3                  0.3
                 0.4                  0.3                  0.3
                 0.4                  0.3                  0.3
                 0.4                  0.3                  0.3
                 0.4                  0.3                  0.3
                 0.4                  0.3                  0.3
                 0.4                  0.3                  0.3
                 0.4                  0.3                  0.3
                 0.4                  0.3                  0.3
                 0.4                  0.3                  0.3
                 0.4                  0.3                  0.3
                 0.4                  0.3                  0.3
                 0.4                  0.3                  0.3
                 0.4                  0.3                  0.3
                 0.4                  0.3                  0.3
                 0.4                  0.3                  0.3
                 0.4                  0.3                  0.3
                 0.4                  0.3                  0.3
                 0.4                  0.3                  0.3
                 0.4                  0.3                  0.3
                 0.4                  0.3                  0.3
                 0.4                  0.3                  0.3
                 0.4                  0.3                  0.3
                 0.4                  0.3                  0.3
                 0.4                  0.3                  0.3
                 0.4                  0.3                  0.3
                 0.4                  0.3                  0.3
                 0.4                  0.3                  0.3
                 0.4                  0.3                  0.3
                 0.4                  0.3                  0.3
                 0.4                  0.3                  0.3
                 0.4                  0.3                  0.3
                 0.4                  0.3                  0.3
                 0.4                  0.3                  0.3
                 0.4                  0.3                  0.3
                 0.4                  0.3                  0.3
                 0.4                  0.3                  0.3
                 0.4                  0.3                  0.3
                 0.4                  0.3                  0.3
                 0.4                  0.3                  0.3
                 0.4                  0.3                  0.3
                 0.4                  0.3                  0.3
                 0.4                  0.3                  0.3
                 0.4                  0.3                  0.3
                 0.4                  0.3                  0.3
                 0.4                  0.3                  0.3
                 0.4                  0.3                  0.3
                 0.4                  0.3                  0.3
                 0.4                  0.3                  0.3
                 0.4                  0.3                  0.3
                 0.4                  0.3                  0.3
                 0.4                  0.3                  0.3
                 0.4                  0.3                  0.3
                 0.4                  0.3                  0.3
                 0.4                  0.3                  0.3
                 0.4                  0.3                  0.3
                 0.4                  0.3                  0.3
                 0.4                  0.3                  0.3
                 0.4                  0.3                  0.3
                 0.4                  0.3                  0.3
                 0.4                  0.3                  0.3
                 0.4                  0.3                  0.3
                 0.4                  0.3                  0.3
                 0.4                  0.3                  0.3
                 0.4                  0.3                  0.3
                 0.4                  0.3                  0.3
                 0.4                  0.3                  0.3
                 0.4                  0.3                  0.3
                 0.4                  0.3                  0.3
                 0.4                  0.3                  0.3
                 0.4                  0.3                  0.3
SCALARS E double 1
LOOKUP_TABLE default
    2.67071485216351
    2.67476853112543
    2.66928514783649
    2.67077005084301
    2.66928514783645
     2.6707148521635
    2.66523146887448
    2.66928514783649
    2.70690455985092
    2.69108000042374
    2.64612359689382
    2.63416357092755
     2.7061647804944
    2.69235106354121
    2.64764893645878
    2.63389950905649
    2.70584559987514
     2.6923510635412
     2.6453329186533
    2.63482233391005
    2.70777831293311
    2.69108000042373
    2.64612359689381
    2.63189760993857
    2.70668690891402
    2.69235106354122
    2.64764893645877
    2.63331309108597
    2.70583642907238
    2.69387640310614
    2.64891999957624
    2.63222168706687
    2.70583642907243
    2.69387640310618
    2.64891999957627
    2.63309544014907
      2.706090205457
    2.69248181373865
    2.64751818626138
    2.63349955446894
    2.70690455985092
    2.69108000042373
    2.64612359689383
    2.63416357092756
    2.70616346043424
    2.69546747762308
    2.64764893645876
     2.6338352195056
    2.70584798613852
    2.69198972801172
    2.64800966355595
    2.63383521950559
    2.70847269594846
    2.70327172276383
    2.64891999957626
    2.63309544014909
    2.69049299922401
    2.63319071763534
    2.63185748337135
    2.67366552541852
    2.63240235808955
    2.63067989014328
    2.68162753323771
    2.71296299048136
    2.63145927674835
    2.67102940228076
    2.71179602833173
    2.68841410540318
    2.67297297109482
    2.70958665708103
    2.69193524552181
    2.64219694756921
    2.69957569891687
    2.65007270545588
    2.63026380346929
    2.66260662736302
    2.64939228241846
    2.62889962419937
    2.66697946551116
    2.70745123658572
    2.62982020989068
    2.66790776632007
    2.70633017224419
     2.6967433933666
    2.66615925041758
    2.70775922690516
    2.70507087894718
    2.65227178301182
    2.69085706496614
    2.63910649237726
    2.63197036006273
    2.67241415636498
    2.64637051618579
    2.63206070221724
    2.67076360054242
    2.70853279711694
    2.63285660434012
      2.680659948778
    2.71213610684216
    2.69158322651844
    2.67384074958244
    2.71425863912603
    2.68994628020476
    2.63970290861949
    2.70283803855482
     2.6476156581462
    2.63103574073413
    2.66909214862946
    2.64988270666854
    2.62801444962829
    2.66978854936175
    2.70858035617464
    2.62575925776973
    2.66752760307127
    2.70701568684433
     2.7029936898166
    2.66505047329676
    2.70696800965119
    2.69677505984034
    2.65073110722785
     2.6902297462214
    2.64610613182503
     2.6330550711656
    2.67655543028766
    2.63655758969792
     2.6343830172705
    2.68555182885723
    2.71283210689432
    2.63124063838005
    2.68832474786292
    2.71465245513308
     2.6897594108475
    2.67454746920148
    2.71378484048247
    2.69036689021801
    2.64072559595439
    2.70158526343919
    2.65207432784928
    2.62744529598764
    2.66459471865904
    2.64947670527312
    2.62727280255817
    2.66011399979744
    2.70885039371487
    2.62804815182682
    2.66167714832695
    2.70884324105451
    2.70808687284659
    2.66415490335038
    2.70913978832554
     2.7018758489486
    2.65149242849841
    2.69368358114775
     2.6871921300829
    2.69104102729597
    2.64358217598951
    2.70105511673231
    2.67026445124424
    2.63342968585714
    2.70654322896935
    2.68006190415479
    2.70525366800348
    2.63412077055943
    2.64817552360298
    2.68837599822572
    2.69349533595999
    2.71282112002296
    2.64878232890971
    2.62915720573236
    2.71217990307092
    2.63654551551634
    2.68277675869488
    2.68923838550768
    2.71447412000374
    2.69773449490774
    2.68067510420767
    2.63319504398176
    2.63820704400614
SCALARS p double 1
LOOKUP_TABLE default
                   1
                   1
   0.999999999999997
   0.999999999999999
   0.999999999999982
   0.999999999999997
   0.999999999999968
                   1
                   1
                   1
                   1
   0.999999999999999
                   1
   0.999999999999997
                   1
   0.999999999999996
   0.999999999999999
   0.999999999999994
                   1
                   1
                   1
                   1
                   1
                   1
   0.999999999999998
   0.999999999999999
   0.999999999999997
   0.999999999999999
   0.999999999999973
   0.999999999999984
    0.99999999999999
    0.99999999999999
   0.999999999999994
   0.999999999999999
                   1
   0.999999999999994
                   1
                   1
                   1
                   1
                   1
   0.999999999999999
    1.00000000000001
                   1
                   1
   0.999999999999998
   0.999999999999991
   0.999999999999999
                   1
   0.999999999999999
   0.999999999999997
   0.999999999999996
                   1
   0.999999999999993