TITLE="Tetrahedral mesh"
VARIABLES= "x" "y" "z" "rho" "vx" "vy" "vz" "E" "p"
ZONE T="none",N=819,E=2963,ET=TETRAHEDRON, F=FEPOINT
                   0	                   0	                   2	    1.00054472650809	                 0.4	                 0.3	                 0.3	    2.67009260350639	    1.00000000000001
                   0	                   0	                   0	    1.00370318400665	                 0.4	                 0.3	                 0.3	    2.67062954128113	                   1
                   0	                   2	                   2	   0.999455273491928	                 0.4	                 0.3	                 0.3	    2.66990739649367	    1.00000000000002
                   0	                   2	                   0	    1.00054472650809	                 0.4	                 0.3	                 0.3	    2.67009260350637	   0.999999999999999
                   2	                   0	                   2	   0.999455273491839	                 0.4	                 0.3	                 0.3	    2.66990739649342	   0.999999999999923
                   2	                   0	                   0	    1.00054472650808	                 0.4	                 0.3	                 0.3	    2.67009260350636	   0.999999999999995
                   2	                   2	                   2	   0.996296815993342	                 0.4	                 0.3	                 0.3	    2.66937045871885	   0.999999999999991
                   2	                   2	                   0	   0.999455273491915	                 0.4	                 0.3	                 0.3	    2.66990739649363	                   1
                   0	                   0	                 0.2	    1.12376890275353	                 0.4	                 0.3	                 0.3	    2.69104071346811	                   1
                   0	                   0	                 0.4	    1.19716358183657	                 0.4	                 0.3	                 0.3	    2.70351780891222	                   1
                   0	                   0	                 0.6	    1.19633891381846	                 0.4	                 0.3	                 0.3	    2.70337761534914	                   1
                   0	                   0	                 0.8	    1.12051945403594	                 0.4	                 0.3	                 0.3	    2.69048830718611	                   1
                   0	                   0	                   1	   0.998665659117271	                 0.4	                 0.3	                 0.3	    2.66977316204993	   0.999999999999999
                   0	                   0	                 1.2	   0.877321537063232	                 0.4	                 0.3	                 0.3	    2.64914466130076	                   1
                   0	                   0	                 1.4	   0.802836418163437	                 0.4	                 0.3	                 0.3	    2.63648219108779	                   1
                   0	                   0	                 1.6	   0.803661086181543	                 0.4	                 0.3	                 0.3	    2.63662238465087	                   1
                   0	                   0	                 1.8	   0.879480545964059	                 0.4	                 0.3	                 0.3	    2.64951169281389	   0.999999999999998
                   0	                 0.2	                   2	    1.12124162751943	                 0.4	                 0.3	                 0.3	    2.69061107667834	    1.00000000000001
                   0	                 0.4	                   2	    1.19617307417779	                 0.4	                 0.3	                 0.3	    2.70334942261025	    1.00000000000001
                   0	                 0.6	                   2	    1.19617307417778	                 0.4	                 0.3	                 0.3	    2.70334942261024	    1.00000000000001
                   0	                 0.8	                   2	    1.12124162751943	                 0.4	                 0.3	                 0.3	    2.69061107667832	    1.00000000000001
                   0	                   1	                   2	    1.00000000000001	                 0.4	                 0.3	                 0.3	    2.67000000000002	    1.00000000000001
                   0	                 1.2	                   2	   0.878758372480589	                 0.4	                 0.3	                 0.3	    2.64938892332172	    1.00000000000001
                   0	                 1.4	                   2	   0.804081106558955	                 0.4	                 0.3	                 0.3	    2.63669378811502	                   1
                   0	                 1.6	                   2	   0.804209926424035	                 0.4	                 0.3	                 0.3	    2.63671568749207	   0.999999999999994
                   0	                 1.8	                   2	   0.878692076780842	                 0.4	                 0.3	                 0.3	    2.64937765305276	                   1
                   0	                   2	                 0.2	    1.12149871674778	                 0.4	                 0.3	                 0.3	    2.69065478184712	                   1
                   0	                   2	                 0.4	    1.19612148432494	                 0.4	                 0.3	                 0.3	    2.70334065233524	   0.999999999999999
                   0	                   2	                 0.6	    1.19584940847171	                 0.4	                 0.3	                 0.3	    2.70329439944018	   0.999999999999994
                   0	                   2	                 0.8	    1.12084998544817	                 0.4	                 0.3	                 0.3	    2.69054449752619	                   1
                   0	                   2	                   1	     1.0002644380275	                 0.4	                 0.3	                 0.3	    2.67004495446466	   0.999999999999994
                   0	                   2	                 1.2	    0.87849347045547	                 0.4	                 0.3	                 0.3	    2.64934388997743	   0.999999999999998
                   0	                   2	                 1.4	   0.801065529767942	                 0.4	                 0.3	                 0.3	    2.63618114006055	   0.999999999999998
                   0	                   2	                 1.6	   0.805106698143371	                 0.4	                 0.3	                 0.3	    2.63686813868438	                   1
                   0	                   2	                 1.8	   0.878501283252214	                 0.4	                 0.3	                 0.3	    2.64934521815286	   0.999999999999994
                   0	                 0.2	                   0	    1.12267846293677	                 0.4	                 0.3	                 0.3	    2.69085533869925	                   1
                   0	                 0.4	                   0	    1.19716358183656	                 0.4	                 0.3	                 0.3	    2.70351780891222	                   1
                   0	                 0.6	                   0	    1.19633891381846	                 0.4	                 0.3	                 0.3	    2.70337761534914	   0.999999999999999
                   0	                 0.8	                   0	    1.12051945403594	                 0.4	                 0.3	                 0.3	    2.69048830718611	                   1
                   0	                   1	                   0	   0.998665659117269	                 0.4	                 0.3	                 0.3	    2.66977316204993	   0.999999999999997
                   0	                 1.2	                   0	    0.87732153706323	                 0.4	                 0.3	                 0.3	    2.64914466130076	                   1
                   0	                 1.4	                   0	   0.802836418163437	                 0.4	                 0.3	                 0.3	    2.63648219108779	                   1
                   0	                 1.6	                   0	   0.803661086181543	                 0.4	                 0.3	                 0.3	    2.63662238465087	                   1
                   0	                 1.8	                   0	   0.879480545964058	                 0.4	                 0.3	                 0.3	    2.64951169281388	   0.999999999999998
                   2	                   0	                 0.2	    1.12149871674778	                 0.4	                 0.3	                 0.3	    2.69065478184713	                   1
                   2	                   0	                 0.4	    1.19617307417778	                 0.4	                 0.3	                 0.3	    2.70334942261023	                   1
                   2	                   0	                 0.6	    1.19617307417777	                 0.4	                 0.3	                 0.3	    2.70334942261022	   0.999999999999999
                   2	                   0	                 0.8	    1.12124162751942	                 0.4	                 0.3	                 0.3	    2.69061107667831	                   1
                   2	                   0	                   1	   0.999425651763771	                 0.4	                 0.3	                 0.3	    2.66990236079981	   0.999999999999989
                   2	                   0	                 1.2	   0.879094505765705	                 0.4	                 0.3	                 0.3	    2.64944606598021	    1.00000000000002
                   2	                   0	                 1.4	   0.804902563450492	                 0.4	                 0.3	                 0.3	    2.63683343578665	    1.00000000000003
                   2	                   0	                 1.6	   0.803817939539307	                 0.4	                 0.3	                 0.3	    2.63664904972172	    1.00000000000001
                   2	                   0	                 1.8	   0.878501283252189	                 0.4	                 0.3	                 0.3	    2.64934521815278	   0.999999999999964
                   2	                 0.2	                   2	     1.1205194540359	                 0.4	                 0.3	                 0.3	    2.69048830718601	   0.999999999999964
                   2	                 0.4	                   2	    1.19633891381842	                 0.4	                 0.3	                 0.3	    2.70337761534905	   0.999999999999969
                   2	                 0.6	                   2	    1.19716358183655	                 0.4	                 0.3	                 0.3	    2.70351780891219	   0.999999999999991
                   2	                 0.8	                   2	    1.12267846293677	                 0.4	                 0.3	                 0.3	    2.69085533869925	                   1
                   2	                   1	                   2	    1.00133434088272	                 0.4	                 0.3	                 0.3	    2.67022683795005	   0.999999999999993
                   2	                 1.2	                   2	   0.878964284431496	                 0.4	                 0.3	                 0.3	    2.64942392835313	   0.999999999999909
                   2	                 1.4	                   2	    0.79804851595512	                 0.4	                 0.3	                 0.3	     2.6356682477122	   0.999999999999931
                   2	                 1.6	                   2	   0.802836418163429	                 0.4	                 0.3	                 0.3	    2.63648219108776	    0.99999999999999
                   2	                 1.8	                   2	   0.877321537063212	                 0.4	                 0.3	                 0.3	     2.6491446613007	   0.999999999999981
                   2	                   2	                 0.2	    1.12051945403594	                 0.4	                 0.3	                 0.3	    2.69048830718612	                   1
                   2	                   2	                 0.4	    1.19633891381846	                 0.4	                 0.3	                 0.3	    2.70337761534915	                   1
                   2	                   2	                 0.6	    1.19716358183656	                 0.4	                 0.3	                 0.3	    2.70351780891221	   0.999999999999997
                   2	                   2	                 0.8	    1.12267846293678	                 0.4	                 0.3	                 0.3	    2.69085533869926	                   1
                   2	                   2	                   1	    1.00133434088272	                 0.4	                 0.3	                 0.3	    2.67022683795006	   0.999999999999997
                   2	                   2	                 1.2	   0.879480545964068	                 0.4	                 0.3	                 0.3	    2.64951169281391	    1.00000000000001
                   2	                   2	                 1.4	   0.803661086181539	                 0.4	                 0.3	                 0.3	    2.63662238465086	   0.999999999999998
                   2	                   2	                 1.6	   0.802836418163435	                 0.4	                 0.3	                 0.3	    2.63648219108778	   0.999999999999998
                   2	                   2	                 1.8	   0.877321537063217	                 0.4	                 0.3	                 0.3	    2.64914466130071	   0.999999999999986
                   2	                 0.2	                   0	    1.12124162751942	                 0.4	                 0.3	                 0.3	    2.69061107667831	                   1
                   2	                 0.4	                   0	    1.19617307417778	                 0.4	                 0.3	                 0.3	    2.70334942261023	                   1
                   2	                 0.6	                   0	    1.19617307417778	                 0.4	                 0.3	                 0.3	    2.70334942261023	                   1
                   2	                 0.8	                   0	    1.12124162751942	                 0.4	                 0.3	                 0.3	    2.69061107667831	                   1
                   2	                   1	                   0	   0.999962472029725	                 0.4	                 0.3	                 0.3	    2.66999362024505	   0.999999999999998
                   2	                 1.2	                   0	   0.878650303942724	                 0.4	                 0.3	                 0.3	    2.64937055167027	                   1
                   2	                 1.4	                   0	   0.803826925822229	                 0.4	                 0.3	                 0.3	    2.63665057738979	                   1
                   2	                 1.6	                   0	   0.804005183104611	                 0.4	                 0.3	                 0.3	    2.63668088112778	   0.999999999999998
                   2	                 1.8	                   0	   0.878865721051146	                 0.4	                 0.3	                 0.3	     2.6494071725787	                   1
                 0.2	                   0	                   0	    1.12267846293677	                 0.4	                 0.3	                 0.3	    2.69085533869925	                   1
                 0.4	                   0	                   0	    1.19716358183657	                 0.4	                 0.3	                 0.3	    2.70351780891222	                   1
                 0.6	                   0	                   0	    1.19633891381846	                 0.4	                 0.3	                 0.3	    2.70337761534915	                   1
                 0.8	                   0	                   0	    1.12051945403594	                 0.4	                 0.3	                 0.3	    2.69048830718612	                   1
                   1	                   0	                   0	   0.998665659117267	                 0.4	                 0.3	                 0.3	    2.66977316204992	   0.999999999999995
                 1.2	                   0	                   0	   0.877321537063235	                 0.4	                 0.3	                 0.3	    2.64914466130077	    1.00000000000001
                 1.4	                   0	                   0	   0.802836418163446	                 0.4	                 0.3	                 0.3	    2.63648219108782	    1.00000000000001
                 1.6	                   0	                   0	   0.803661086181536	                 0.4	                 0.3	                 0.3	    2.63662238465085	   0.999999999999994
                 1.8	                   0	                   0	   0.879480545964056	                 0.4	                 0.3	                 0.3	    2.64951169281388	   0.999999999999995
                 0.2	                   0	                   2	    1.12148524210083	                 0.4	                 0.3	                 0.3	    2.69065249115714	                   1
                 0.4	                   0	                   2	    1.19659458412665	                 0.4	                 0.3	                 0.3	    2.70342107930151	   0.999999999999991
                 0.6	                   0	                   2	    1.19527775044817	                 0.4	                 0.3	                 0.3	    2.70319721757609	    0.99999999999996
                 0.8	                   0	                   2	     1.1212761224487	                 0.4	                 0.3	                 0.3	    2.69061694081636	    1.00000000000003
                   1	                   0	                   2	   0.999864756661808	                 0.4	                 0.3	                 0.3	    2.66997700863237	   0.999999999999945
                 1.2	                   0	                   2	   0.878879972709089	                 0.4	                 0.3	                 0.3	    2.64940959536045	   0.999999999999963
                 1.4	                   0	                   2	   0.804243450177556	                 0.4	                 0.3	                 0.3	     2.6367213865303	    1.00000000000004
                 1.6	                   0	                   2	   0.804510924122295	                 0.4	                 0.3	                 0.3	    2.63676685710095	    1.00000000000006
                 1.8	                   0	                   2	   0.878739595514244	                 0.4	                 0.3	                 0.3	    2.64938573123693	   0.999999999999802
                 0.2	                   2	                   0	    1.12124162751942	                 0.4	                 0.3	                 0.3	     2.6906110766783	                   1
                 0.4	                   2	                   0	    1.19617307417777	                 0.4	                 0.3	                 0.3	    2.70334942261022	                   1
                 0.6	                   2	                   0	    1.19582724795079	                 0.4	                 0.3	                 0.3	    2.70329063215163	   0.999999999999999
                 0.8	                   2	                   0	    1.12127437118579	                 0.4	                 0.3	                 0.3	    2.69061664310159	                   1
                   1	                   2	                   0	   0.999999999999997	                 0.4	                 0.3	                 0.3	    2.66999999999999	   0.999999999999997
                 1.2	                   2	                   0	   0.879361421418369	                 0.4	                 0.3	                 0.3	    2.64949144164114	    1.00000000000001
                 1.4	                   2	                   0	   0.800521925773553	                 0.4	                 0.3	                 0.3	    2.63608872738151	                   1
                 1.6	                   2	                   0	   0.803749999538549	                 0.4	                 0.3	                 0.3	    2.63663749992156	                   1
                 1.8	                   2	                   0	   0.878768301412067	                 0.4	                 0.3	                 0.3	    2.64939061124004	   0.999999999999994
                 0.2	                   2	                   2	    1.12051945403595	                 0.4	                 0.3	                 0.3	    2.69048830718614	    1.00000000000001
                 0.4	                   2	                   2	    1.19633891381846	                 0.4	                 0.3	                 0.3	    2.70337761534915	                   1
                 0.6	                   2	                   2	    1.19716358183657	                 0.4	                 0.3	                 0.3	    2.70351780891224	    1.00000000000001
                 0.8	                   2	                   2	    1.12267846293676	                 0.4	                 0.3	                 0.3	    2.69085533869923	   0.999999999999993
                   1	                   2	                   2	    1.00133434088271	                 0.4	                 0.3	                 0.3	    2.67022683795001	   0.999999999999981
                 1.2	                   2	                   2	   0.879480545964038	                 0.4	                 0.3	                 0.3	    2.64951169281382	   0.999999999999975
                 1.4	                   2	                   2	   0.803661086181592	                 0.4	                 0.3	                 0.3	    2.63662238465102	    1.00000000000006
                 1.6	                   2	                   2	   0.802836418163393	                 0.4	                 0.3	                 0.3	    2.63648219108764	   0.999999999999946
                 1.8	                   2	                   2	   0.876231097246446	                 0.4	                 0.3	                 0.3	    2.64895928653183	   0.999999999999975
                   0	                 0.2	                 0.2	    1.21130428125639	                 0.4	                 0.3	                 0.3	    2.70592172781359	                   1
                   0	                 0.4	                 0.2	    1.20252643008927	                 0.4	                 0.3	                 0.3	    2.70442949311518	                   1
                   0	                 0.6	                 0.2	     1.1221980147886	                 0.4	                 0.3	                 0.3	    2.69077366251407	                   1
                   0	                 0.8	                 0.2	   0.983431043048086	                 0.4	                 0.3	                 0.3	    2.66718327731817	   0.999999999999999
                   0	                   1	                 0.2	   0.864503958791431	                 0.4	                 0.3	                 0.3	    2.64696567299454	                   1
                   0	                 1.2	                 0.2	   0.777328432186028	                 0.4	                 0.3	                 0.3	    2.63214583347163	                   1
                   0	                 1.4	                 0.2	   0.789358581331672	                 0.4	                 0.3	                 0.3	    2.63419095882638	                   1
                   0	                 1.6	                 0.2	   0.877553418842766	                 0.4	                 0.3	                 0.3	    2.64918408120327	   0.999999999999998
                   0	                 1.8	                 0.2	    1.00426335732152	                 0.4	                 0.3	                 0.3	    2.67072477074466	                   1
                   0	                 0.2	                 0.4	    1.20993054121332	                 0.4	                 0.3	                 0.3	    2.70568819200626	   0.999999999999999
                   0	                 0.4	                 0.4	    1.12187771602316	                 0.4	                 0.3	                 0.3	    2.69071921172394	                   1
                   0	                 0.6	                 0.4	   0.992273119593123	                 0.4	                 0.3	                 0.3	    2.66868643033083	                   1
                   0	                 0.8	                 0.4	   0.856817229421922	                 0.4	                 0.3	                 0.3	    2.64565892900172	   0.999999999999998
                   0	                   1	                 0.4	   0.794228749231613	                 0.4	                 0.3	                 0.3	    2.63501888736938	                   1
                   0	                 1.2	                 0.4	   0.794777017724616	                 0.4	                 0.3	                 0.3	    2.63511209301319	                   1
                   0	                 1.4	                 0.4	   0.876723437816035	                 0.4	                 0.3	                 0.3	    2.64904298442873	                   1
                   0	                 1.6	                 0.4	    1.00219341103631	                 0.4	                 0.3	                 0.3	    2.67037287987617	   0.999999999999999
                   0	                 1.8	                 0.4	    1.12967753405086	                 0.4	                 0.3	                 0.3	    2.69204518078865	                   1
                   0	                 0.2	                 0.6	    1.12310195403193	                 0.4	                 0.3	                 0.3	    2.69092733218543	                   1
                   0	                 0.4	                 0.6	   0.989058619453889	                 0.4	                 0.3	                 0.3	    2.66813996530716	                   1
                   0	                 0.6	                 0.6	   0.865861937793257	                 0.4	                 0.3	                 0.3	    2.64719652942485	                   1
                   0	                 0.8	                 0.6	   0.783820221123695	                 0.4	                 0.3	                 0.3	    2.63324943759103	   0.999999999999999
                   0	                   1	                 0.6	   0.789649203220069	                 0.4	                 0.3	                 0.3	    2.63424036454741	                   1
                   0	                 1.2	                 0.6	   0.879375252572369	                 0.4	                 0.3	                 0.3	     2.6494937929373	   0.999999999999998
                   0	                 1.4	                 0.6	    1.00603231525439	                 0.4	                 0.3	                 0.3	    2.67102549359325	                   1
                   0	                 1.6	                 0.6	    1.14307459079829	                 0.4	                 0.3	                 0.3	    2.69432268043571	                   1
                   0	                 1.8	                 0.6	    1.21157535122323	                 0.4	                 0.3	                 0.3	    2.70596780970795	   0.999999999999999
                   0	                 0.2	                 0.8	   0.986524521942737	                 0.4	                 0.3	                 0.3	    2.66770916873027	                   1
                   0	                 0.4	                 0.8	   0.856933499812567	                 0.4	                 0.3	                 0.3	    2.64567869496813	   0.999999999999998
                   0	                 0.6	                 0.8	   0.800004099631125	                 0.4	                 0.3	                 0.3	    2.63600069693729	                   1
                   0	                 0.8	                 0.8	   0.798244112799439	                 0.4	                 0.3	                 0.3	     2.6357014991759	   0.999999999999999
                   0	                   1	                 0.8	   0.876995995423459	                 0.4	                 0.3	                 0.3	    2.64908931922199	   0.999999999999999
                   0	                 1.2	                 0.8	    1.00669557807716	                 0.4	                 0.3	                 0.3	    2.67113824827313	    1.00000000000001
                   0	                 1.4	                 0.8	    1.12491753641126	                 0.4	                 0.3	                 0.3	    2.69123598118992	                   1
                   0	                 1.6	                 0.8	    1.20687511018459	                 0.4	                 0.3	                 0.3	    2.70516876873137	   0.999999999999997
                   0	                 1.8	                 0.8	     1.2041027726792	                 0.4	                 0.3	                 0.3	    2.70469747135546	                   1
                   0	                 0.2	                   1	   0.865587452562365	                 0.4	                 0.3	                 0.3	     2.6471498669356	   0.999999999999997
                   0	                 0.4	                   1	   0.781582021615937	                 0.4	                 0.3	                 0.3	    2.63286894367471	   0.999999999999999
                   0	                 0.6	                   1	   0.798141975447025	                 0.4	                 0.3	                 0.3	      2.635684135826	                   1
                   0	                 0.8	                   1	    0.87788770872753	                 0.4	                 0.3	                 0.3	    2.64924091048368	                   1
                   0	                   1	                   1	    1.00714708931608	                 0.4	                 0.3	                 0.3	    2.67121500518372	   0.999999999999994
                   0	                 1.2	                   1	     1.1208839398804	                 0.4	                 0.3	                 0.3	    2.69055026977967	                   1