TITLE="Tetrahedral mesh"
VARIABLES= "x" "y" "z" "rho" "vx" "vy" "vz" "E" "p"
ZONE T="none",N=819,E=2963,ET=TETRAHEDRON, F=FEPOINT
                   0	                   0	                   2	    1.02238601414301	   0.399999999999986	   0.300000000000009	   0.300000000000021	    2.67380562240432	                   1
                   0	                   0	                   0	    1.02453739389696	   0.399999999999978	   0.300000000000009	   0.300000000000012	    2.67417135696249	                   1
                   0	                   2	                   2	    1.01642231331711	   0.399999999999996	   0.300000000000007	   0.300000000000018	    2.67279179326391	   0.999999999999999
                   0	                   2	                   0	    1.01755516088535	   0.399999999999993	   0.300000000000014	   0.300000000000013	    2.67298437735052	                   1
                   2	                   0	                   2	    1.01641579153761	   0.399999999999978	   0.300000000000018	   0.300000000000011	    2.67279068456139	   0.999999999999999
                   2	                   0	                   0	     1.0176851426243	   0.399999999999972	   0.300000000000009	    0.30000000000001	    2.67300647424612	   0.999999999999999
                   2	                   2	                   2	    1.01315413190111	   0.399999999999986	   0.300000000000013	   0.300000000000014	    2.67223620242318	   0.999999999999993
                   2	                   2	                   0	    1.01202006180729	   0.399999999999982	   0.300000000000015	   0.300000000000014	    2.67204341050723	   0.999999999999996
                   0	                   0	                 0.2	   0.892036922561355	   0.399999999999985	   0.300000000000005	   0.300000000000011	    2.65164627683543	                   1
                   0	                   0	                 0.4	   0.813720853020723	   0.400000000000004	   0.300000000000003	   0.299999999999999	    2.63833254501353	                   1
                   0	                   0	                 0.6	   0.798746961831423	   0.399999999999996	   0.299999999999996	   0.299999999999996	    2.63578698351134	   0.999999999999999
                   0	                   0	                 0.8	   0.859020761241163	    0.40000000000001	   0.299999999999998	   0.300000000000006	      2.646033529411	   0.999999999999999
                   0	                   0	                   1	   0.962785369214959	   0.400000000000001	   0.300000000000008	   0.300000000000009	    2.66367351276656	                   1
                   0	                   0	                 1.2	    1.06964233896246	   0.399999999999987	   0.300000000000004	   0.299999999999988	    2.68183919762362	                   1
                   0	                   0	                 1.4	    1.16385426288978	   0.399999999999981	   0.300000000000011	   0.299999999999976	    2.69785522469125	                   1
                   0	                   0	                 1.6	    1.18543028253311	    0.40000000000002	   0.299999999999986	   0.299999999999987	    2.70152314803064	                   1
                   0	                   0	                 1.8	    1.12979922546914	   0.400000000000018	                 0.3	   0.299999999999999	    2.69206586832976	                   1
                   0	                 0.2	                   2	   0.883180534749436	   0.399999999999986	   0.299999999999986	   0.300000000000012	     2.6501406909074	                   1
                   0	                 0.4	                   2	   0.808101228298001	   0.400000000000049	   0.299999999999999	   0.299999999999994	    2.63737720881067	   0.999999999999998
                   0	                 0.6	                   2	   0.803487587468327	   0.399999999999996	   0.300000000000007	   0.299999999999991	    2.63659288986962	                   1
                   0	                 0.8	                   2	   0.881181072817843	    0.40000000000001	   0.300000000000007	   0.299999999999977	    2.64980078237904	                   1
                   0	                   1	                   2	   0.976375091871385	   0.399999999999999	   0.300000000000005	   0.299999999999997	    2.66598376561814	                   1
                   0	                 1.2	                   2	    1.11019487932673	   0.400000000000007	   0.299999999999979	   0.299999999999995	    2.68873312948557	    1.00000000000001
                   0	                 1.4	                   2	    1.19021896019405	   0.400000000000006	   0.300000000000007	   0.300000000000006	    2.70233722323303	    1.00000000000001
                   0	                 1.6	                   2	    1.20918627789791	   0.399999999999991	   0.299999999999987	   0.300000000000023	    2.70556166724265	                   1
                   0	                 1.8	                   2	      1.122659174206	   0.400000000000016	   0.300000000000004	   0.300000000000007	    2.69085205961502	   0.999999999999996
                   0	                   2	                 0.2	   0.882106363809963	   0.399999999999989	                 0.3	   0.300000000000008	    2.64995808184768	   0.999999999999997
                   0	                   2	                 0.4	   0.808150711778908	   0.400000000000005	   0.300000000000003	   0.299999999999998	    2.63738562100242	                   1
                   0	                   2	                 0.6	   0.806102295333334	   0.399999999999995	   0.299999999999994	   0.299999999999997	    2.63703739020666	   0.999999999999999
                   0	                   2	                 0.8	   0.870583603905091	   0.400000000000013	   0.300000000000001	   0.300000000000007	    2.64799921266387	   0.999999999999999
                   0	                   2	                   1	   0.982980170525688	   0.399999999999999	   0.300000000000004	    0.30000000000001	    2.66710662898937	                   1
                   0	                   2	                 1.2	    1.07907478841262	   0.399999999999993	   0.299999999999997	   0.299999999999985	    2.68344271403015	                   1
                   0	                   2	                 1.4	       1.18424694627	   0.399999999999994	   0.300000000000013	   0.299999999999985	    2.70132198086589	   0.999999999999999
                   0	                   2	                 1.6	     1.1821196911504	   0.400000000000001	   0.299999999999984	   0.299999999999985	    2.70096034749556	                   1
                   0	                   2	                 1.8	    1.12173844467021	   0.400000000000011	   0.300000000000001	   0.299999999999998	    2.69069553559394	   0.999999999999998
                   0	                 0.2	                   0	   0.885856811848351	   0.399999999999977	   0.299999999999981	   0.300000000000009	    2.65059565801421	                   1
                   0	                 0.4	                   0	   0.813038770292428	   0.400000000000041	    0.29999999999999	    0.29999999999999	    2.63821659094972	   0.999999999999997
                   0	                 0.6	                   0	   0.803822473226734	   0.399999999999995	   0.300000000000013	   0.299999999999988	    2.63664982044854	   0.999999999999999
                   0	                 0.8	                   0	   0.879733346049033	   0.400000000000011	   0.300000000000016	   0.299999999999981	    2.64955466882835	                   1
                   0	                   1	                   0	   0.952935136949527	   0.399999999999998	   0.300000000000012	   0.299999999999992	    2.66199897328142	   0.999999999999998
                   0	                 1.2	                   0	    1.09484541676615	   0.399999999999998	   0.299999999999998	   0.299999999999998	    2.68612372085025	                   1
                   0	                 1.4	                   0	    1.18215122680158	   0.400000000000002	   0.300000000000005	   0.299999999999992	    2.70096570855627	   0.999999999999999
                   0	                 1.6	                   0	    1.21375226622565	   0.399999999999982	   0.299999999999987	   0.300000000000018	    2.70633788525836	                   1
                   0	                 1.8	                   0	    1.13381967720759	    0.40000000000001	   0.300000000000001	   0.300000000000007	     2.6927493451253	                   1
                   2	                   0	                 0.2	   0.883925566113837	   0.399999999999996	   0.300000000000006	   0.300000000000016	    2.65026734623936	                   1
                   2	                   0	                 0.4	   0.806924854861835	   0.400000000000004	   0.300000000000002	                 0.3	    2.63717722532651	                   1
                   2	                   0	                 0.6	   0.804360462163602	   0.399999999999995	   0.299999999999993	   0.299999999999995	    2.63674127856781	   0.999999999999999
                   2	                   0	                 0.8	   0.868253276280679	   0.400000000000015	                 0.3	   0.300000000000008	    2.64760305696772	   0.999999999999999
                   2	                   0	                   1	   0.992120919709802	   0.400000000000004	   0.300000000000009	   0.300000000000001	    2.66866055635067	                   1
                   2	                   0	                 1.2	     1.0793203867667	   0.399999999999982	    0.29999999999999	   0.299999999999989	    2.68348446575031	   0.999999999999996
                   2	                   0	                 1.4	    1.18002623689719	   0.399999999999971	   0.300000000000008	   0.299999999999967	    2.70060446027251	                   1
                   2	                   0	                 1.6	    1.18486540990636	   0.400000000000027	   0.299999999999984	   0.299999999999983	    2.70142711968408	   0.999999999999997
                   2	                   0	                 1.8	    1.12428191820199	   0.400000000000036	   0.300000000000006	   0.300000000000018	    2.69112792609439	    1.00000000000001
                   2	                 0.2	                   2	   0.878042307312163	   0.399999999999974	   0.299999999999971	   0.300000000000004	    2.64926719224304	   0.999999999999994
                   2	                 0.4	                   2	   0.807675500820245	   0.400000000000051	   0.300000000000005	    0.29999999999999	    2.63730483513945	   0.999999999999998
                   2	                 0.6	                   2	   0.800303686107037	   0.399999999999987	   0.299999999999998	   0.299999999999994	    2.63605162663819	                   1
                   2	                 0.8	                   2	   0.880269949356047	   0.400000000000016	   0.300000000000011	   0.299999999999976	    2.64964589139053	   0.999999999999999
                   2	                   1	                   2	   0.983041344378977	   0.399999999999995	   0.300000000000009	   0.299999999999999	    2.66711702854443	                   1
                   2	                 1.2	                   2	    1.11840596917962	   0.400000000000023	   0.299999999999988	   0.300000000000004	    2.69012901476056	    1.00000000000001
                   2	                 1.4	                   2	    1.19273216980553	   0.399999999999991	   0.300000000000006	   0.299999999999981	    2.70276446886694	                   1
                   2	                 1.6	                   2	    1.20666941586769	   0.399999999999984	    0.29999999999997	   0.300000000000016	     2.7051338006975	                   1
                   2	                 1.8	                   2	    1.11923734479797	   0.400000000000035	   0.300000000000011	   0.300000000000008	    2.69027034861566	   0.999999999999991
                   2	                   2	                 0.2	   0.882847811017717	   0.399999999999993	   0.299999999999998	   0.300000000000007	    2.65008412787301	   0.999999999999999
                   2	                   2	                 0.4	   0.806030909404782	   0.400000000000004	   0.300000000000004	   0.299999999999998	    2.63702525459881	   0.999999999999999
                   2	                   2	                 0.6	   0.807351796782224	   0.399999999999994	   0.299999999999989	   0.299999999999996	    2.63724980545297	   0.999999999999998
                   2	                   2	                 0.8	   0.872259055753855	   0.400000000000015	   0.300000000000002	   0.300000000000008	    2.64828403947815	   0.999999999999994
                   2	                   2	                   1	   0.993105511926668	   0.399999999999998	   0.300000000000008	   0.300000000000005	    2.66882793702754	                   1
                   2	                   2	                 1.2	    1.08065416050934	    0.39999999999999	   0.299999999999996	   0.299999999999991	     2.6837112072866	    1.00000000000001
                   2	                   2	                 1.4	    1.19204741036723	   0.399999999999989	   0.300000000000011	   0.299999999999988	    2.70264805976243	                   1
                   2	                   2	                 1.6	    1.18429139819435	   0.400000000000008	   0.299999999999982	   0.299999999999989	    2.70132953769303	   0.999999999999999
                   2	                   2	                 1.8	    1.12202941055914	    0.40000000000001	   0.299999999999999	   0.300000000000008	    2.69074499979506	   0.999999999999998
                   2	                 0.2	                   0	   0.882989101456475	   0.399999999999972	   0.299999999999968	   0.300000000000003	    2.65010814724757	   0.999999999999996
                   2	                 0.4	                   0	   0.806668492369693	   0.400000000000047	   0.299999999999997	   0.299999999999989	    2.63713364370286	   0.999999999999999
                   2	                 0.6	                   0	    0.80331047745742	   0.399999999999986	   0.300000000000011	   0.299999999999986	    2.63656278116775	   0.999999999999999
                   2	                 0.8	                   0	   0.883368424812703	   0.400000000000015	   0.300000000000022	   0.299999999999983	    2.65017263221818	                   1
                   2	                   1	                   0	   0.976383626413687	   0.399999999999993	   0.300000000000015	   0.299999999999998	    2.66598521649032	   0.999999999999998
                   2	                 1.2	                   0	     1.1131577583965	   0.400000000000001	   0.300000000000011	   0.299999999999997	     2.6892368189274	   0.999999999999997
                   2	                 1.4	                   0	    1.19017573614057	   0.399999999999991	   0.299999999999995	   0.299999999999991	    2.70232987514385	   0.999999999999987
                   2	                 1.6	                   0	    1.20861873565198	   0.399999999999975	   0.299999999999979	   0.300000000000008	    2.70546518506083	                   1
                   2	                 1.8	                   0	    1.12578382595989	   0.400000000000024	   0.300000000000006	   0.300000000000006	     2.6913832504132	                   1
                 0.2	                   0	                   0	   0.896117833374872	   0.399999999999993	   0.300000000000015	    0.30000000000001	    2.65234003167373	                   1
                 0.4	                   0	                   0	   0.811989103073153	   0.399999999999993	   0.300000000000008	   0.299999999999996	    2.63803814752243	   0.999999999999999
                 0.6	                   0	                   0	    0.79592386150456	   0.400000000000015	   0.299999999999999	   0.299999999999997	    2.63530705645578	                   1
                 0.8	                   0	                   0	   0.853519032049065	   0.400000000000009	   0.300000000000018	   0.300000000000017	    2.64509823544837	    1.00000000000001
                   1	                   0	                   0	   0.963857342062973	   0.399999999999984	                 0.3	   0.299999999999999	     2.6638557481507	                   1
                 1.2	                   0	                   0	    1.08155280114685	   0.399999999999994	   0.299999999999985	   0.299999999999959	     2.6838639761949	   0.999999999999981
                 1.4	                   0	                   0	    1.16374195500521	   0.399999999999994	   0.300000000000006	   0.299999999999994	    2.69783613235093	    1.00000000000002
                 1.6	                   0	                   0	     1.1917844508954	    0.39999999999999	   0.300000000000031	   0.299999999999964	    2.70260335665219	    0.99999999999999
                 1.8	                   0	                   0	    1.12630268777685	   0.399999999999935	    0.29999999999998	   0.300000000000028	    2.69147145692207	    1.00000000000001
                 0.2	                   0	                   2	   0.892744159501767	   0.399999999999995	   0.300000000000012	   0.300000000000007	     2.6517665071153	   0.999999999999997
                 0.4	                   0	                   2	   0.807356176024949	   0.400000000000004	   0.300000000000008	   0.299999999999995	    2.63725054992425	                   1
                 0.6	                   0	                   2	   0.801257863984957	   0.400000000000026	   0.300000000000013	   0.299999999999998	    2.63621383687748	    1.00000000000001
                 0.8	                   0	                   2	   0.864740034471615	                 0.4	   0.300000000000041	   0.300000000000024	    2.64700580586018	   0.999999999999994
                   1	                   0	                   2	   0.980367719096574	   0.399999999999961	   0.300000000000008	    0.30000000000001	    2.66666251224639	   0.999999999999993
                 1.2	                   0	                   2	    1.09515404213931	   0.399999999999997	   0.299999999999976	   0.299999999999949	    2.68617618716364	   0.999999999999995
                 1.4	                   0	                   2	    1.16765963749149	   0.399999999999994	    0.30000000000002	   0.300000000000013	    2.69850213837356	                   1
                 1.6	                   0	                   2	    1.19759347700084	   0.399999999999955	   0.300000000000031	   0.299999999999925	    2.70359089109016	    1.00000000000002
                 1.8	                   0	                   2	    1.12226864504237	   0.399999999999924	   0.300000000000024	   0.300000000000034	    2.69078566965718	   0.999999999999996
                 0.2	                   2	                   0	   0.894735311750526	   0.399999999999991	   0.300000000000015	   0.300000000000009	    2.65210500299759	   0.999999999999998
                 0.4	                   2	                   0	   0.801836614071382	   0.399999999999991	   0.300000000000004	   0.299999999999996	    2.63631222439213	   0.999999999999998
                 0.6	                   2	                   0	   0.803955024826952	   0.400000000000011	   0.300000000000005	                 0.3	    2.63667235422058	   0.999999999999999
                 0.8	                   2	                   0	   0.863669354632818	   0.400000000000013	   0.300000000000012	    0.30000000000001	    2.64682379028759	                   1
                   1	                   2	                   0	   0.980877623373122	   0.399999999999999	   0.299999999999997	                 0.3	    2.66674919597342	   0.999999999999995
                 1.2	                   2	                   0	    1.09377889822802	   0.399999999999992	   0.299999999999978	   0.299999999999985	    2.68594241269875	                   1
                 1.4	                   2	                   0	    1.17528493985109	   0.400000000000011	   0.300000000000014	   0.300000000000003	    2.69979843977468	   0.999999999999992
                 1.6	                   2	                   0	    1.19581012908242	    0.39999999999998	   0.300000000000009	   0.299999999999987	    2.70328772194397	   0.999999999999989
                 1.8	                   2	                   0	      1.122176573704	   0.399999999999968	    0.29999999999998	   0.300000000000001	    2.69077001752965	   0.999999999999997
                 0.2	                   2	                   2	   0.891538491538035	   0.399999999999995	   0.300000000000016	   0.300000000000007	    2.65156154356146	   0.999999999999997
                 0.4	                   2	                   2	    0.79835198954516	    0.39999999999999	   0.299999999999999	   0.299999999999995	    2.63571983822266	   0.999999999999997
                 0.6	                   2	                   2	   0.806430783853878	   0.400000000000015	   0.300000000000011	   0.300000000000007	    2.63709323325516	   0.999999999999995
                 0.8	                   2	                   2	   0.867894735305326	   0.400000000000012	   0.300000000000008	   0.300000000000014	    2.64754210500188	   0.999999999999987
                   1	                   2	                   2	   0.986102109101675	   0.400000000000003	   0.299999999999997	   0.300000000000007	    2.66763735854726	   0.999999999999989
                 1.2	                   2	                   2	    1.10350539256118	   0.399999999999988	   0.299999999999959	   0.299999999999985	    2.68759591673539	                   1
                 1.4	                   2	                   2	    1.17198259824237	   0.400000000000019	   0.300000000000055	   0.300000000000014	    2.69923704170119	   0.999999999999981
                 1.6	                   2	                   2	      1.199083795254	   0.399999999999962	   0.299999999999993	   0.299999999999979	    2.70384424519312	   0.999999999999989
                 1.8	                   2	                   2	    1.11984889471365	   0.399999999999982	   0.299999999999997	   0.300000000000009	     2.6903743121013	   0.999999999999995
                   0	                 0.2	                 0.2	    0.77626683543449	   0.399999999999968	   0.300000000000003	   0.299999999999985	    2.63196536202385	   0.999999999999999
                   0	                 0.4	                 0.2	   0.801969787245087	   0.400000000000023	   0.300000000000009	   0.299999999999976	    2.63633486383167	                   1
                   0	                 0.6	                 0.2	    0.87569268189639	   0.399999999999994	   0.300000000000007	   0.299999999999985	    2.64886775592238	   0.999999999999997
                   0	                 0.8	                 0.2	    1.04224027213467	   0.400000000000001	   0.300000000000009	   0.299999999999996	     2.6771808462629	                   1
                   0	                   1	                 0.2	    1.13889788589965	   0.400000000000009	   0.300000000000017	   0.300000000000003	    2.69361264060295	   0.999999999999998
                   0	                 1.2	                 0.2	    1.22537232686142	                 0.4	   0.300000000000018	   0.300000000000002	    2.70831329556644	   0.999999999999996
                   0	                 1.4	                 0.2	    1.19303075940525	   0.399999999999989	   0.300000000000003	   0.299999999999995	    2.70281522909888	   0.999999999999997
                   0	                 1.6	                 0.2	    1.09188295307226	   0.399999999999966	   0.299999999999993	   0.299999999999993	    2.68562010202227	                   1
                   0	                 1.8	                 0.2	   0.980343993589385	   0.399999999999995	   0.299999999999989	   0.299999999999998	     2.6666584789102	                   1
                   0	                 0.2	                 0.4	   0.804279025082245	   0.399999999999992	   0.300000000000002	   0.299999999999983	    2.63672743426398	                   1
                   0	                 0.4	                 0.4	    0.87527288943214	   0.400000000000011	   0.299999999999997	    0.29999999999999	    2.64879639120347	                   1
                   0	                 0.6	                 0.4	    1.00755847476735	   0.400000000000001	   0.299999999999992	   0.299999999999992	    2.67128494071044	   0.999999999999999
                   0	                 0.8	                 0.4	    1.15001618305954	   0.399999999999995	   0.299999999999991	   0.299999999999993	    2.69550275112011	                   1
                   0	                   1	                 0.4	    1.20805217622716	   0.400000000000001	   0.299999999999995	   0.300000000000004	    2.70536886995862	                   1
                   0	                 1.2	                 0.4	    1.22620019085209	   0.400000000000007	   0.299999999999998	   0.300000000000004	    2.70845403244486	   0.999999999999999
                   0	                 1.4	                 0.4	    1.11950741029466	                 0.4	   0.299999999999997	   0.299999999999999	    2.69031625975009	   0.999999999999999
                   0	                 1.6	                 0.4	    1.04076701829063	   0.399999999999999	   0.300000000000008	   0.299999999999999	     2.6769303931094	   0.999999999999995
                   0	                 1.8	                 0.4	   0.895113170505542	   0.400000000000001	   0.300000000000003	   0.300000000000002	    2.65216923898594	   0.999999999999998
                   0	                 0.2	                 0.6	   0.895329487729843	   0.399999999999997	   0.299999999999991	    0.29999999999999	    2.65220601291407	   0.999999999999999
                   0	                 0.4	                 0.6	    0.99872715927975	   0.399999999999987	   0.299999999999988	   0.300000000000003	    2.66978361707754	   0.999999999999996
                   0	                 0.6	                 0.6	    1.13687330980275	   0.400000000000001	   0.299999999999991	   0.300000000000003	    2.69326846266646	   0.999999999999998
                   0	                 0.8	                 0.6	    1.22186637752644	   0.400000000000006	   0.299999999999989	   0.299999999999998	    2.70771728417949	   0.999999999999999
                   0	                   1	                 0.6	    1.20220513878749	   0.400000000000002	                 0.3	   0.299999999999997	    2.70437487359388	                   1
                   0	                 1.2	                 0.6	    1.10542140965352	   0.400000000000007	   0.300000000000008	   0.300000000000002	    2.68792163964111	                   1
                   0	                 1.4	                 0.6	   0.972616167811693	   0.399999999999999	                 0.3	   0.299999999999998	    2.66534474852799	                   1
                   0	                 1.6	                 0.6	   0.837481661341664	    0.40000000000001	                 0.3	   0.299999999999996	    2.64237188242808	   0.999999999999998
                   0	                 1.8	                 0.6	   0.809654520097816	   0.399999999999986	   0.299999999999989	   0.300000000000004	    2.63764126841662	                   1
                   0	                 0.2	                 0.8	    1.03883391523325	   0.400000000000013	   0.300000000000005	   0.300000000000002	    2.67660176558965	   0.999999999999997
                   0	                 0.4	                 0.8	    1.16951538827174	   0.399999999999999	   0.300000000000008	   0.299999999999997	    2.69881761600619	   0.999999999999996
                   0	                 0.6	                 0.8	    1.19372206842871	   0.399999999999972	   0.300000000000037	   0.299999999999995	    2.70293275163286	   0.999999999999994
                   0	                 0.8	                 0.8	    1.20728150325011	    0.39999999999998	   0.300000000000007	   0.299999999999988	    2.70523785555251	                   1
                   0	                   1	                 0.8	    1.13173325871984	                 0.4	   0.300000000000005	                 0.3	    2.69239465398237	   0.999999999999996
                   0	                 1.2	                 0.8	   0.981799191876992	   0.400000000000002	                 0.3	   0.300000000000002	    2.66690586261909	                   1
                   0	                 1.4	                 0.8	   0.918460568265506	                 0.4	   0.300000000000006	   0.300000000000003	    2.65613829660514	                   1
                   0	                 1.6	                 0.8	   0.791860003378722	   0.400000000000017	   0.299999999999999	   0.300000000000003	    2.63461620057439	                   1
                   0	                 1.8	                 0.8	   0.806801482729819	   0.399999999999998	   0.299999999999992	   0.300000000000005	    2.63715625206407	                   1
                   0	                 0.2	                   1	    1.14075408445429	   0.400000000000006	    0.29999999999999	   0.300000000000008	    2.69392819435725	    1.00000000000001
                   0	                 0.4	                   1	    1.22746488721385	   0.400000000000013	   0.299999999999998	   0.299999999999984	    2.70866903082636	                   1
                   0	                 0.6	                   1	    1.20664475464827	   0.400000000000016	   0.300000000000006	   0.300000000000005	    2.70512960829022	                   1
                   0	                 0.8	                   1	    1.14486514375521	   0.399999999999994	   0.300000000000012	   0.300000000000009	    2.69462707443839	                   1
                   0	                   1	                   1	   0.995705043364075	   0.399999999999989	   0.299999999999998	   0.300000000000002	    2.66926985737188	   0.999999999999998
                   0	                 1.2	                   1	   0.897883952585929	   0.400000000000008	   0.300000000000002	   0.300000000000005	    2.65264027193961	   0.999999999999999