TITLE="Tetrahedral mesh"
VARIABLES= "x" "y" "z" "rho" "vx" "vy" "vz" "E" "p"
ZONE T="none",N=178,E=525,ET=TETRAHEDRON, F=FEPOINT
                   0	                   0	                   2	    1.03193639264835	   0.399999999999999	   0.300000000000001	   0.299999999999998	    2.67542918675022	                   1
                   0	                   0	                   0	    1.04486365091579	   0.399999999999997	   0.299999999999999	   0.299999999999998	    2.67762682065568	                   1
                   0	                   2	                   2	    1.02107778839364	   0.399999999999997	   0.299999999999998	   0.300000000000001	    2.67358322402692	                   1
                   0	                   2	                   0	    1.02156792305179	   0.399999999999996	   0.299999999999999	   0.299999999999999	     2.6736665469188	   0.999999999999999
                   2	                   0	                   2	    1.02621933672754	   0.399999999999997	   0.300000000000002	   0.299999999999998	    2.67445728724368	                   1
                   2	                   0	                   0	    1.04242325536466	   0.399999999999998	   0.299999999999999	   0.299999999999998	    2.67721195341199	                   1
                   2	                   2	                   2	    1.04390930681043	   0.399999999999997	   0.299999999999996	   0.299999999999999	    2.67746458215777	                   1
                   2	                   2	                   0	    1.02809704872611	   0.399999999999996	   0.299999999999998	   0.299999999999998	    2.67477649828344	   0.999999999999999
                   0	                   0	                 0.4	    0.78121123623713	   0.399999999999995	   0.299999999999999	   0.299999999999999	    2.63280591016031	                   1
                   0	                   0	                 0.8	   0.856624975608202	                 0.4	                 0.3	   0.299999999999998	     2.6456262458534	                   1
                   0	                   0	                 1.2	    1.16495210660211	   0.399999999999999	   0.299999999999999	   0.299999999999999	    2.69804185812236	                   1
                   0	                   0	                 1.6	    1.21373632345441	                 0.4	   0.299999999999997	   0.300000000000002	    2.70633517498725	                   1
                   0	                 0.4	                   2	   0.784599815540603	   0.399999999999999	   0.300000000000003	   0.299999999999995	     2.6333819686419	                   1
                   0	                 0.8	                   2	   0.877652616038756	   0.399999999999997	   0.299999999999998	   0.300000000000005	     2.6492009447266	                   1
                   0	                 1.2	                   2	     1.1440572362929	   0.399999999999999	   0.299999999999999	   0.300000000000001	     2.6944897301698	                   1
                   0	                 1.6	                   2	      1.189694415869	   0.400000000000001	                 0.3	   0.300000000000002	    2.70224805069773	                   1
                   0	                   2	                 0.4	   0.788321577044363	   0.399999999999997	                 0.3	   0.299999999999998	    2.63401466809754	                   1
                   0	                   2	                 0.8	   0.884167362427017	   0.400000000000001	   0.300000000000001	                 0.3	     2.6503084516126	                   1
                   0	                   2	                 1.2	    1.18910458815149	   0.399999999999997	   0.299999999999998	   0.299999999999999	    2.70214777998575	   0.999999999999999
                   0	                   2	                 1.6	     1.1794201406501	                 0.4	   0.299999999999997	                 0.3	    2.70050142391052	                   1
                   0	                 0.4	                   0	   0.757906238337958	                 0.4	   0.300000000000001	   0.299999999999996	    2.62884406051745	                   1
                   0	                 0.8	                   0	    0.84933985707912	   0.399999999999994	   0.299999999999997	   0.300000000000004	    2.64438777570346	                   1
                   0	                 1.2	                   0	    1.14939099961359	   0.399999999999996	   0.299999999999997	   0.300000000000001	    2.69539646993431	                   1
                   0	                 1.6	                   0	    1.27618353173181	   0.399999999999998	   0.299999999999998	   0.300000000000002	    2.71695120039441	                   1
                   2	                   0	                 0.4	   0.781621190309603	   0.399999999999993	   0.299999999999998	   0.299999999999999	    2.63287560235263	                   1
                   2	                   0	                 0.8	   0.884254501383032	   0.399999999999998	   0.299999999999999	   0.299999999999999	    2.65032326523512	                   1
                   2	                   0	                 1.2	    1.16597502390943	   0.399999999999999	   0.299999999999999	   0.299999999999999	     2.6982157540646	   0.999999999999999
                   2	                   0	                 1.6	    1.18826533219563	   0.400000000000001	   0.299999999999999	                 0.3	    2.70200510647326	                   1
                   2	                 0.4	                   2	    0.78636183016198	   0.399999999999999	   0.300000000000001	   0.299999999999994	    2.63368151112754	                   1
                   2	                 0.8	                   2	   0.874854221865206	   0.399999999999995	                 0.3	   0.300000000000001	    2.64872521771709	                   1
                   2	                 1.2	                   2	    1.12193941159469	   0.399999999999999	                 0.3	   0.300000000000002	     2.6907296999711	                   1
                   2	                 1.6	                   2	    1.16909258894586	   0.399999999999999	                 0.3	   0.300000000000002	     2.6987457401208	                   1
                   2	                   2	                 0.4	   0.774302429479331	   0.399999999999998	   0.299999999999998	   0.299999999999998	    2.63163141301149	                   1
                   2	                   2	                 0.8	   0.884579097988739	   0.400000000000001	   0.300000000000004	                 0.3	    2.65037844665809	                   1
                   2	                   2	                 1.2	    1.17191315393432	   0.399999999999997	   0.299999999999999	   0.299999999999999	    2.69922523616883	                   1
                   2	                   2	                 1.6	    1.17245910936495	   0.400000000000002	   0.299999999999997	                 0.3	    2.69931804859205	                   1
                   2	                 0.4	                   0	   0.785053641355144	                 0.4	   0.299999999999999	   0.299999999999996	    2.63345911903038	                   1
                   2	                 0.8	                   0	   0.876078620826856	   0.399999999999992	   0.299999999999996	   0.300000000000001	    2.64893336554057	                   1
                   2	                 1.2	                   0	    1.13727357876462	   0.399999999999995	   0.299999999999997	   0.300000000000001	    2.69333650838999	                   1
                   2	                 1.6	                   0	    1.21536938774505	   0.399999999999997	   0.299999999999998	   0.299999999999998	    2.70661279591666	                   1
                 0.4	                   0	                   0	   0.776621563016146	   0.399999999999997	                 0.3	   0.300000000000005	    2.63202566571274	                   1
                 0.8	                   0	                   0	    0.84842593369231	   0.400000000000003	                 0.3	   0.300000000000001	    2.64423240872769	                   1
                 1.2	                   0	                   0	    1.12095673005242	   0.399999999999998	   0.300000000000005	                 0.3	    2.69056264410892	                   1
                 1.6	                   0	                   0	    1.24222010767369	   0.399999999999998	   0.299999999999997	   0.299999999999999	    2.71117741830453	                   1
                 0.4	                   0	                   2	    0.78110669537426	   0.399999999999999	   0.299999999999999	   0.300000000000007	    2.63278813821362	   0.999999999999998
                 0.8	                   0	                   2	   0.877376012669242	                 0.4	                 0.3	   0.299999999999999	    2.64915392215377	                   1
                 1.2	                   0	                   2	    1.12144133903979	   0.399999999999997	   0.300000000000008	                 0.3	    2.69064502763677	                   1
                 1.6	                   0	                   2	    1.21161951734008	   0.399999999999999	   0.299999999999995	   0.299999999999998	    2.70597531794781	   0.999999999999999
                 0.4	                   2	                   0	   0.788102589138513	   0.399999999999997	                 0.3	   0.300000000000004	    2.63397744015355	                   1
                 0.8	                   2	                   0	   0.874307809242499	   0.400000000000005	   0.300000000000001	   0.300000000000001	    2.64863232757123	                   1
                 1.2	                   2	                   0	     1.1267072264844	   0.399999999999999	   0.300000000000004	                 0.3	    2.69154022850236	                   1
                 1.6	                   2	                   0	    1.21479047378221	   0.399999999999999	   0.299999999999997	   0.299999999999999	    2.70651438054297	   0.999999999999999
                 0.4	                   2	                   2	   0.778346432605238	   0.399999999999999	   0.299999999999998	   0.300000000000007	    2.63231889354289	   0.999999999999999
                 0.8	                   2	                   2	   0.896957155765615	   0.400000000000003	   0.300000000000003	                 0.3	    2.65248271648016	                   1
                 1.2	                   2	                   2	    1.12768633068252	   0.399999999999998	   0.300000000000011	                 0.3	    2.69170667621604	                   1
                 1.6	                   2	                   2	    1.21251880704158	                 0.4	   0.299999999999997	   0.299999999999997	    2.70612819719707	                   1
                   0	                 0.4	                 0.4	   0.880678738385479	                 0.4	   0.299999999999999	                 0.3	    2.64971538552553	   0.999999999999999
                   0	                 0.8	                 0.4	     1.1739294095016	   0.400000000000001	                 0.3	   0.299999999999999	    2.69956799961528	                   1
                   0	                 1.2	                 0.4	     1.1648475056221	                 0.4	                 0.3	   0.299999999999999	    2.69802407595576	                   1
                   0	                 1.6	                 0.4	   0.952708155449817	   0.400000000000001	   0.299999999999999	                 0.3	    2.66196038642647	                   1
                   0	                 0.4	                 0.8	    1.19765893524843	   0.400000000000001	                 0.3	   0.300000000000001	    2.70360201899223	   0.999999999999999
                   0	                 0.8	                 0.8	    1.15862819563924	   0.400000000000003	                 0.3	                 0.3	    2.69696679325867	                   1
                   0	                 1.2	                 0.8	   0.885592642984307	   0.400000000000002	   0.300000000000002	   0.300000000000002	    2.65055074930733	   0.999999999999999
                   0	                 1.6	                 0.8	   0.790883420284449	                 0.4	   0.300000000000003	   0.300000000000002	    2.63445018144835	   0.999999999999999
                   0	                 0.4	                 1.2	    1.21719946612182	   0.400000000000002	   0.299999999999998	   0.300000000000001	     2.7069239092407	   0.999999999999998
                   0	                 0.8	                 1.2	    1.00555951605579	   0.399999999999999	                 0.3	   0.300000000000002	    2.67094511772948	   0.999999999999999
                   0	                 1.2	                 1.2	   0.733232005879668	   0.399999999999998	   0.300000000000004	                 0.3	    2.62464944099954	                   1
                   0	                 1.6	                 1.2	   0.958293152649649	   0.399999999999993	   0.300000000000001	   0.299999999999998	    2.66290983595044	                   1
                   0	                 0.4	                 1.6	   0.979851438909551	   0.400000000000001	   0.300000000000001	   0.299999999999997	    2.66657474461462	   0.999999999999999
                   0	                 0.8	                 1.6	   0.789050870340503	   0.400000000000001	   0.300000000000004	   0.300000000000007	    2.63413864795789	                   1
                   0	                 1.2	                 1.6	   0.899662241045024	   0.400000000000003	   0.300000000000001	   0.300000000000002	    2.65294258097766	                   1
                   0	                 1.6	                 1.6	    1.06094455270055	   0.400000000000006	   0.300000000000004	                 0.3	     2.6803605739591	                   1
                   2	                 0.4	                 0.4	   0.842836459578642	                 0.4	                 0.3	                 0.3	    2.64328219812837	                   1
                   2	                 0.8	                 0.4	    1.10905753784512	   0.400000000000002	   0.299999999999999	   0.299999999999999	    2.68853978143367	                   1
                   2	                 1.2	                 0.4	    1.15714398917577	   0.399999999999998	   0.299999999999997	   0.299999999999999	    2.69671447815988	                   1
                   2	                 1.6	                 0.4	    1.01465156109139	   0.400000000000002	   0.300000000000004	   0.300000000000003	    2.67249076538554	                   1
                   2	                 0.4	                 0.8	    1.11719372262808	   0.400000000000002	   0.299999999999999	                 0.3	    2.68992293284678	                   1
                   2	                 0.8	                 0.8	    1.16646096162943	   0.400000000000003	   0.299999999999997	                 0.3	    2.69829836347701	                   1
                   2	                 1.2	                 0.8	   0.943452177165771	   0.400000000000002	   0.300000000000003	   0.300000000000001	    2.66038687011818	                   1
                   2	                 1.6	                 0.8	   0.865400363900009	   0.399999999999997	   0.300000000000002	   0.300000000000001	      2.647118061863	                   1
                   2	                 0.4	                 1.2	    1.18296032726301	   0.400000000000001	   0.299999999999998	   0.300000000000002	    2.70110325563471	   0.999999999999999
                   2	                 0.8	                 1.2	   0.999088914103933	   0.400000000000002	   0.300000000000001	   0.300000000000003	    2.66984511539767	   0.999999999999998
                   2	                 1.2	                 1.2	   0.771775255206187	   0.399999999999999	   0.299999999999997	   0.299999999999996	    2.63120179338505	                   1
                   2	                 1.6	                 1.2	   0.934243188249807	   0.399999999999993	   0.300000000000001	   0.299999999999998	    2.65882134200247	                   1
                   2	                 0.4	                 1.6	    1.01342289249127	   0.399999999999998	   0.300000000000004	   0.299999999999997	    2.67228189172352	                   1
                   2	                 0.8	                 1.6	   0.824481058064713	   0.400000000000003	   0.300000000000003	   0.300000000000019	    2.64016177987101	                   1
                   2	                 1.2	                 1.6	   0.935881012134949	                 0.4	   0.300000000000002	   0.300000000000001	    2.65909977206295	                   1
                   2	                 1.6	                 1.6	    1.01365151213587	   0.400000000000006	   0.300000000000002	   0.299999999999999	     2.6723207570631	                   1
                 0.4	                   0	                 0.4	   0.902301856736362	   0.399999999999997	   0.299999999999999	   0.300000000000001	    2.65339131564518	                   1
                 0.4	                   0	                 0.8	    1.17665415975352	   0.399999999999999	   0.300000000000001	   0.299999999999999	    2.70003120715809	   0.999999999999998
                 0.4	                   0	                 1.2	    1.20736023263346	   0.399999999999997	   0.300000000000002	   0.299999999999996	    2.70525123954768	   0.999999999999999
                 0.4	                   0	                 1.6	   0.987638429618934	   0.399999999999992	   0.300000000000001	   0.299999999999993	    2.66789853303521	   0.999999999999998
                 0.8	                   0	                 0.4	    1.12836900979424	   0.400000000000001	   0.299999999999996	                 0.3	    2.69182273166502	                   1
                 0.8	                   0	                 0.8	    1.22989841283875	   0.400000000000002	   0.299999999999998	   0.299999999999998	    2.70908273018259	   0.999999999999999
                 0.8	                   0	                 1.2	    1.03074270783888	   0.400000000000002	   0.299999999999999	                 0.3	    2.67522626033261	                   1
                 0.8	                   0	                 1.6	   0.770513438915651	   0.399999999999995	   0.300000000000002	   0.300000000000001	    2.63098728461566	   0.999999999999998
                 1.2	                   0	                 0.4	    1.22585871419659	   0.399999999999999	   0.300000000000004	   0.299999999999999	    2.70839598141342	   0.999999999999998
                 1.2	                   0	                 0.8	   0.924602667861052	   0.400000000000003	                 0.3	   0.299999999999997	    2.65718245353638	   0.999999999999999
                 1.2	                   0	                 1.2	   0.790046407088244	   0.399999999999999	   0.299999999999998	   0.299999999999997	      2.634307889205	   0.999999999999998
                 1.2	                   0	                 1.6	   0.866695787003414	   0.400000000000002	   0.299999999999999	   0.299999999999998	    2.64733828379058	                   1
                 1.6	                   0	                 0.4	    0.96189052519695	   0.400000000000002	                 0.3	                 0.3	    2.66352138928348	   0.999999999999998
                 1.6	                   0	                 0.8	   0.785898670177283	   0.400000000000001	   0.300000000000001	   0.299999999999999	    2.63360277393014	   0.999999999999999
                 1.6	                   0	                 1.2	   0.908134718806898	   0.399999999999999	   0.300000000000002	                 0.3	    2.65438290219717	   0.999999999999999
                 1.6	                   0	                 1.6	    1.15802122430277	   0.400000000000002	   0.300000000000002	                 0.3	    2.69686360813148	                   1
                 0.4	                   2	                 0.4	   0.855896260024342	   0.399999999999997	   0.299999999999998	   0.299999999999999	    2.64550236420414	                   1
                 0.4	                   2	                 0.8	    1.12002474719689	   0.400000000000002	   0.300000000000002	                 0.3	    2.69040420702347	   0.999999999999998
                 0.4	                   2	                 1.2	    1.18706808640188	   0.399999999999996	   0.299999999999999	   0.299999999999997	    2.70180157468831	   0.999999999999999
                 0.4	                   2	                 1.6	    1.01499136454442	                 0.4	   0.300000000000004	                 0.3	    2.67254853197255	   0.999999999999997
                 0.8	                   2	                 0.4	    1.11144183880897	                 0.4	   0.299999999999998	   0.299999999999999	    2.68894511259752	                   1
                 0.8	                   2	                 0.8	    1.17108054894846	                 0.4	   0.299999999999997	   0.299999999999996	    2.69908369332123	   0.999999999999998
                 0.8	                   2	                 1.2	     1.0364638780119	   0.399999999999997	   0.299999999999994	   0.299999999999997	    2.67619885926202	                   1
                 0.8	                   2	                 1.6	   0.825111315888699	   0.399999999999999	   0.300000000000004	   0.299999999999991	    2.64026892370107	   0.999999999999998
                 1.2	                   2	                 0.4	    1.21442494451663	   0.400000000000001	   0.300000000000002	   0.299999999999998	    2.70645224056783	   0.999999999999999
                 1.2	                   2	                 0.8	   0.978174179926385	   0.400000000000005	   0.300000000000003	   0.299999999999997	    2.66628961058748	   0.999999999999999
                 1.2	                   2	                 1.2	   0.823538594304516	   0.399999999999999	   0.299999999999997	   0.299999999999998	    2.64000156103177	                   1
                 1.2	                   2	                 1.6	   0.834495077345331	   0.399999999999997	   0.300000000000001	   0.299999999999999	     2.6418641631487	   0.999999999999999
                 1.6	                   2	                 0.4	    1.00740557836863	                 0.4	   0.299999999999999	                 0.3	    2.67125894832266	   0.999999999999998
                 1.6	                   2	                 0.8	    0.83835404695464	   0.400000000000002	   0.299999999999997	   0.300000000000001	    2.64252018798229	                   1
                 1.6	                   2	                 1.2	   0.905098808277314	   0.399999999999998	   0.300000000000002	   0.300000000000001	    2.65386679740714	                   1
                 1.6	                   2	                 1.6	    1.06994657241243	   0.400000000000002	   0.299999999999998	   0.300000000000001	    2.68189091731011	                   1
                 0.4	                 0.4	                   0	   0.910973718144238	   0.399999999999999	   0.300000000000002	   0.299999999999999	    2.65486553208452	                   1
                 0.8	                 0.4	                   0	    1.16932144628582	   0.399999999999999	   0.299999999999998	   0.299999999999999	    2.69878464586859	                   1
                 1.2	                 0.4	                   0	    1.21934716774968	                 0.4	   0.300000000000004	   0.299999999999999	    2.70728901851744	   0.999999999999998
                 1.6	                 0.4	                   0	   0.941597549918671	   0.400000000000003	   0.299999999999994	   0.300000000000004	    2.66007158348617	   0.999999999999999
                 0.4	                 0.8	                   0	    1.17681974811336	   0.400000000000002	                 0.3	   0.300000000000004	    2.70005935717928	                   1
                 0.8	                 0.8	                   0	     1.1412744497334	   0.400000000000004	   0.300000000000001	                 0.3	    2.69401665645468	                   1
                 1.2	                 0.8	                   0	   0.860030119276707	   0.399999999999999	   0.299999999999998	   0.299999999999997	    2.64620512027704	                   1
                 1.6	                 0.8	                   0	   0.795197680893108	   0.399999999999997	   0.299999999999999	   0.299999999999999	    2.63518360575183	                   1
                 0.4	                 1.2	                   0	    1.19725652941599	                 0.4	                 0.3	   0.300000000000002	    2.70353361000072	   0.999999999999999
                 0.8	                 1.2	                   0	   0.907849782693633	                 0.4	   0.299999999999999	   0.300000000000001	    2.65433446305791	   0.999999999999999
                 1.2	                 1.2	                   0	   0.827419711709411	   0.400000000000001	   0.300000000000001	                 0.3	     2.6406613509906	                   1
                 1.6	                 1.2	                   0	   0.892136319689027	   0.399999999999997	   0.299999999999998	   0.299999999999999	    2.65166317434714	                   1
                 0.4	                 1.6	                   0	   0.936728433776518	   0.399999999999999	   0.299999999999999	   0.299999999999996	    2.65924383374201	                   1
                 0.8	                 1.6	                   0	   0.756154045883487	   0.400000000000001	   0.300000000000001	   0.299999999999995	    2.62854618780019	   0.999999999999998
                 1.2	                 1.6	                   0	   0.921453433618496	   0.399999999999999	   0.300000000000002	                 0.3	    2.65664708371515	                   1
                 1.6	                 1.6	                   0	    1.14907257694067	                 0.4	   0.299999999999997	   0.299999999999999	    2.69534233807991	                   1
                 0.4	                 0.4	                   2	   0.851765505453704	                 0.4	   0.300000000000001	   0.299999999999999	    2.64480013592713	                   1
                 0.8	                 0.4	                   2	    1.11896510539909	   0.399999999999994	   0.299999999999997	   0.299999999999997	    2.69022406791784	                   1
                 1.2	                 0.4	                   2	    1.21382175571218	   0.400000000000004	   0.300000000000002	   0.299999999999999	    2.70634969847107	                   1
                 1.6	                 0.4	                   2	      1.004433066464	   0.400000000000007	   0.299999999999995	   0.300000000000004	    2.67075362129888	   0.999999999999999
                 0.4	                 0.8	                   2	     1.1063069167136	   0.400000000000003	                 0.3	   0.300000000000005	    2.68807217584132	                   1
                 0.8	                 0.8	                   2	    1.18566125198033	   0.400000000000001	   0.300000000000003	   0.299999999999999	    2.70156241283666	                   1
                 1.2	                 0.8	                   2	   0.970856644434314	   0.400000000000002	   0.299999999999997	   0.299999999999995	    2.66504562955383	                   1
                 1.6	                 0.8	                   2	   0.844968467619896	   0.399999999999993	   0.299999999999997	   0.299999999999997	    2.64364463949538	                   1
                 0.4	                 1.2	                   2	    1.18855112986496	   0.400000000000001	                 0.3	   0.300000000000002	    2.70205369207705	                   1
                 0.8	                 1.2	                   2	   0.984580901897044	   0.399999999999999	   0.299999999999996	   0.299999999999998	     2.6673787533225	                   1
                 1.2	                 1.2	                   2	   0.835282486067276	   0.399999999999998	   0.300000000000001	   0.300000000000003	    2.64199802263144	                   1
                 1.6	                 1.2	                   2	    0.88295626364014	                 0.4	   0.299999999999998	   0.299999999999998	    2.65010256481883	                   1
                 0.4	                 1.6	                   2	   0.991939786136561	   0.399999999999998	   0.299999999999999	   0.299999999999995	    2.66862976364322	                   1
                 0.8	                 1.6	                   2	   0.793213709531914	   0.400000000000007	   0.300000000000004	   0.299999999999999	    2.63484633062042	   0.999999999999998
                 1.2	                 1.6	                   2	    0.91252795986052	   0.400000000000001	   0.300000000000002	   0.299999999999996	    2.65512975317629	                   1
                 1.6	                 1.6	                   2	    1.07759482915006	   0.399999999999997	   0.299999999999993	   0.299999999999997	    2.68319112095551	                   1
   0.214618370086772	    1.86736337418972	   0.132050051478219	   0.893378057516681	   0.399999999999996	   0.299999999999999	   0.299999999999999	    2.65187426977784	                   1
    0.14520937108617	    1.78358511734907	   0.216359517279464	   0.930300556135997	   0.399999999999999	   0.300000000000002	                 0.3	    2.65815109454312	                   1
   0.103650992704651	    0.57854564054051	    1.48032615432547	   0.833480654045677	   0.399999999999995	   0.300000000000004	   0.299999999999999	    2.64169171118776	   0.999999999999999
   0.243754485506024	    1.43194258657138	    1.54443597697061	     1.1616828020874	   0.399999999999997	   0.299999999999999	   0.299999999999999	    2.69748607635486	                   1
   0.587555252460512	  0.0778649938950625	    1.54479400769398	   0.779871310008691	   0.399999999999985	   0.300000000000001	   0.299999999999997	    2.63257812270146	   0.999999999999996
   0.999395291003464	     1.7085808453982	   0.291419154601804	    1.02300940749237	   0.400000000000002	                 0.3	   0.299999999999999	    2.67391159927371	                   1