# vtk DataFile Version 3.0
Tetrahedral mesh
ASCII
DATASET UNSTRUCTURED_GRID
POINTS 178 double
                   0                    0                    2
                   0                    0                    0
                   0                    2                    2
                   0                    2                    0
                   2                    0                    2
                   2                    0                    0
                   2                    2                    2
                   2                    2                    0
                   0                    0                  0.4
                   0                    0                  0.8
                   0                    0                  1.2
                   0                    0                  1.6
                   0                  0.4                    2
                   0                  0.8                    2
                   0                  1.2                    2
                   0                  1.6                    2
                   0                    2                  0.4
                   0                    2                  0.8
                   0                    2                  1.2
                   0                    2                  1.6
                   0                  0.4                    0
                   0                  0.8                    0
                   0                  1.2                    0
                   0                  1.6                    0
                   2                    0                  0.4
                   2                    0                  0.8
                   2                    0                  1.2
                   2                    0                  1.6
                   2                  0.4                    2
                   2                  0.8                    2
                   2                  1.2                    2
                   2                  1.6                    2
                   2                    2                  0.4
                   2                    2                  0.8
                   2                    2                  1.2
                   2                    2                  1.6
                   2                  0.4                    0
                   2                  0.8                    0
                   2                  1.2                    0
                   2                  1.6                    0
                 0.4                    0                    0
                 0.8                    0                    0
                 1.2                    0                    0
                 1.6                    0                    0
                 0.4                    0                    2
                 0.8                    0                    2
                 1.2                    0                    2
                 1.6                    0                    2
                 0.4                    2                    0
                 0.8                    2                    0
                 1.2                    2                    0
                 1.6                    2                    0
                 0.4                    2                    2
                 0.8                    2                    2
                 1.2                    2                    2
                 1.6                    2                    2
                   0                  0.4                  0.4
                   0                  0.8                  0.4
                   0                  1.2                  0.4
                   0                  1.6                  0.4
                   0                  0.4                  0.8
                   0                  0.8                  0.8
                   0                  1.2                  0.8
                   0                  1.6                  0.8
                   0                  0.4                  1.2
                   0                  0.8                  1.2
                   0                  1.2                  1.2
                   0                  1.6                  1.2
                   0                  0.4                  1.6
                   0                  0.8                  1.6
                   0                  1.2                  1.6
                   0                  1.6                  1.6
                   2                  0.4                  0.4
                   2                  0.8                  0.4
                   2                  1.2                  0.4
                   2                  1.6                  0.4
                   2                  0.4                  0.8
                   2                  0.8                  0.8
                   2                  1.2                  0.8
                   2                  1.6                  0.8
                   2                  0.4                  1.2
                   2                  0.8                  1.2
                   2                  1.2                  1.2
                   2                  1.6                  1.2
                   2                  0.4                  1.6
                   2                  0.8                  1.6
                   2                  1.2                  1.6
                   2                  1.6                  1.6
                 0.4                    0                  0.4
                 0.4                    0                  0.8
                 0.4                    0                  1.2
                 0.4                    0                  1.6
                 0.8                    0                  0.4
                 0.8                    0                  0.8
                 0.8                    0                  1.2
                 0.8                    0                  1.6
                 1.2                    0                  0.4
                 1.2                    0                  0.8
                 1.2                    0                  1.2
                 1.2                    0                  1.6
                 1.6                    0                  0.4
                 1.6                    0                  0.8
                 1.6                    0                  1.2
                 1.6                    0                  1.6
                 0.4                    2                  0.4
                 0.4                    2                  0.8
                 0.4                    2                  1.2
                 0.4                    2                  1.6
                 0.8                    2                  0.4
                 0.8                    2                  0.8
                 0.8                    2                  1.2
                 0.8                    2                  1.6
                 1.2                    2                  0.4
                 1.2                    2                  0.8
                 1.2                    2                  1.2
                 1.2                    2                  1.6
                 1.6                    2                  0.4
                 1.6                    2                  0.8
                 1.6                    2                  1.2
                 1.6                    2                  1.6
                 0.4                  0.4                    0
                 0.8                  0.4                    0
                 1.2                  0.4                    0
                 1.6                  0.4                    0
                 0.4                  0.8                    0
                 0.8                  0.8                    0
                 1.2                  0.8                    0
                 1.6                  0.8                    0
                 0.4                  1.2                    0
                 0.8                  1.2                    0
                 1.2                  1.2                    0
                 1.6                  1.2                    0
                 0.4                  1.6                    0
                 0.8                  1.6                    0
                 1.2                  1.6                    0
                 1.6                  1.6                    0
                 0.4                  0.4                    2
                 0.8                  0.4                    2
                 1.2                  0.4                    2
                 1.6                  0.4                    2
                 0.4                  0.8                    2
                 0.8                  0.8                    2
                 1.2                  0.8                    2
                 1.6                  0.8                    2
                 0.4                  1.2                    2
                 0.8                  1.2                    2
                 1.2                  1.2                    2
                 1.6                  1.2                    2
                 0.4                  1.6                    2
                 0.8                  1.6                    2
                 1.2                  1.6                    2
                 1.6                  1.6                    2
   0.214618370086772     1.86736337418972    0.132050051478219
    0.14520937108617     1.78358511734907    0.216359517279464
   0.103650992704651     0.57854564054051     1.48032615432547
   0.243754485506024     1.43194258657138     1.54443597697061
   0.587555252460512   0.0778649938950625     1.54479400769398
[...]
POINT_DATA 178
SCALARS rho double 1
LOOKUP_TABLE default
    1.03193639264835
    1.04486365091579
    1.02107778839364
    1.02156792305179
    1.02621933672754
    1.04242325536466
    1.04390930681043
    1.02809704872611
    0.78121123623713
   0.856624975608202
    1.16495210660211
    1.21373632345441
   0.784599815540603
   0.877652616038756
     1.1440572362929
      1.189694415869
   0.788321577044363
   0.884167362427017
    1.18910458815149
     1.1794201406501
   0.757906238337958
    0.84933985707912
    1.14939099961359
    1.27618353173181
   0.781621190309603
   0.884254501383032
    1.16597502390943
    1.18826533219563
    0.78636183016198
   0.874854221865206
    1.12193941159469
    1.16909258894586
   0.774302429479331
   0.884579097988739
    1.17191315393432
    1.17245910936495
   0.785053641355144
   0.876078620826856
    1.13727357876462
    1.21536938774505
   0.776621563016146
    0.84842593369231
    1.12095673005242
    1.24222010767369
    0.78110669537426
   0.877376012669242
    1.12144133903979
    1.21161951734008
   0.788102589138513
   0.874307809242499
     1.1267072264844
    1.21479047378221
   0.778346432605238
   0.896957155765615
    1.12768633068252
    1.21251880704158
   0.880678738385479
     1.1739294095016
     1.1648475056221
   0.952708155449817
    1.19765893524843
    1.15862819563924
   0.885592642984307
   0.790883420284449
    1.21719946612182
    1.00555951605579
   0.733232005879668
   0.958293152649649
   0.979851438909551
   0.789050870340503
   0.899662241045024
    1.06094455270055
   0.842836459578642
    1.10905753784512
    1.15714398917577
    1.01465156109139
    1.11719372262808
    1.16646096162943
   0.943452177165771
   0.865400363900009
    1.18296032726301
   0.999088914103933
   0.771775255206187
   0.934243188249807
    1.01342289249127
   0.824481058064713
   0.935881012134949
    1.01365151213587
   0.902301856736362
    1.17665415975352
    1.20736023263346
   0.987638429618934
    1.12836900979424
    1.22989841283875
    1.03074270783888
   0.770513438915651
    1.22585871419659
   0.924602667861052
   0.790046407088244
   0.866695787003414
    0.96189052519695
   0.785898670177283
   0.908134718806898
    1.15802122430277
   0.855896260024342
    1.12002474719689
    1.18706808640188
    1.01499136454442
    1.11144183880897
    1.17108054894846
     1.0364638780119
   0.825111315888699
    1.21442494451663
   0.978174179926385
   0.823538594304516
   0.834495077345331
    1.00740557836863
    0.83835404695464
   0.905098808277314
    1.06994657241243
   0.910973718144238
    1.16932144628582
    1.21934716774968
   0.941597549918671
    1.17681974811336
     1.1412744497334
   0.860030119276707
   0.795197680893108
    1.19725652941599
   0.907849782693633
   0.827419711709411
   0.892136319689027
   0.936728433776518
   0.756154045883487
   0.921453433618496
    1.14907257694067
   0.851765505453704
    1.11896510539909
    1.21382175571218
      1.004433066464
     1.1063069167136
    1.18566125198033
   0.970856644434314
   0.844968467619896
    1.18855112986496
   0.984580901897044
   0.835282486067276
    0.88295626364014
   0.991939786136561
   0.793213709531914
    0.91252795986052
    1.07759482915006
   0.893378057516681
   0.930300556135997
   0.833480654045677
     1.1616828020874
   0.779871310008691
    1.02300940749237
    1.15823891415412
   0.827291433683087
   0.991433793699922
   0.804453435828749
    1.11756176651893
    1.14258664305272
   0.944932902227446
   0.866100951600598
   0.846995065515874
    1.10540053717084
    1.13273203446511
   0.868777507347641
    1.11839986365756
   0.990591987510556
   0.875014112865462
   0.865263571748381
   0.871660650995002
   0.969392741941072
    1.09142105572808
    1.14150962421077
VECTORS velocity double
   0.399999999999999    0.300000000000001    0.299999999999998
   0.399999999999997    0.299999999999999    0.299999999999998
   0.399999999999997    0.299999999999998    0.300000000000001
   0.399999999999996    0.299999999999999    0.299999999999999
   0.399999999999997    0.300000000000002    0.299999999999998
   0.399999999999998    0.299999999999999    0.299999999999998
   0.399999999999997    0.299999999999996    0.299999999999999
   0.399999999999996    0.299999999999998    0.299999999999998
   0.399999999999995    0.299999999999999    0.299999999999999
                 0.4                  0.3    0.299999999999998
   0.399999999999999    0.299999999999999    0.299999999999999
                 0.4    0.299999999999997    0.300000000000002
   0.399999999999999    0.300000000000003    0.299999999999995
   0.399999999999997    0.299999999999998    0.300000000000005
   0.399999999999999    0.299999999999999    0.300000000000001
   0.400000000000001                  0.3    0.300000000000002
   0.399999999999997                  0.3    0.299999999999998
   0.400000000000001    0.300000000000001                  0.3
   0.399999999999997    0.299999999999998    0.299999999999999
                 0.4    0.299999999999997                  0.3
                 0.4    0.300000000000001    0.299999999999996
   0.399999999999994    0.299999999999997    0.300000000000004
   0.399999999999996    0.299999999999997    0.300000000000001
   0.399999999999998    0.299999999999998    0.300000000000002
   0.399999999999993    0.299999999999998    0.299999999999999
   0.399999999999998    0.299999999999999    0.299999999999999
   0.399999999999999    0.299999999999999    0.299999999999999
   0.400000000000001    0.299999999999999                  0.3
   0.399999999999999    0.300000000000001    0.299999999999994
   0.399999999999995                  0.3    0.300000000000001
   0.399999999999999                  0.3    0.300000000000002
   0.399999999999999                  0.3    0.300000000000002
   0.399999999999998    0.299999999999998    0.299999999999998
   0.400000000000001    0.300000000000004                  0.3
   0.399999999999997    0.299999999999999    0.299999999999999
   0.400000000000002    0.299999999999997                  0.3
                 0.4    0.299999999999999    0.299999999999996
   0.399999999999992    0.299999999999996    0.300000000000001
   0.399999999999995    0.299999999999997    0.300000000000001
   0.399999999999997    0.299999999999998    0.299999999999998
   0.399999999999997                  0.3    0.300000000000005
   0.400000000000003                  0.3    0.300000000000001
   0.399999999999998    0.300000000000005                  0.3
   0.399999999999998    0.299999999999997    0.299999999999999
   0.399999999999999    0.299999999999999    0.300000000000007
                 0.4                  0.3    0.299999999999999
   0.399999999999997    0.300000000000008                  0.3
   0.399999999999999    0.299999999999995    0.299999999999998
   0.399999999999997                  0.3    0.300000000000004
   0.400000000000005    0.300000000000001    0.300000000000001
   0.399999999999999    0.300000000000004                  0.3
   0.399999999999999    0.299999999999997    0.299999999999999
   0.399999999999999    0.299999999999998    0.300000000000007
   0.400000000000003    0.300000000000003                  0.3
   0.399999999999998    0.300000000000011                  0.3
                 0.4    0.299999999999997    0.299999999999997
                 0.4    0.299999999999999                  0.3
   0.400000000000001                  0.3    0.299999999999999
                 0.4                  0.3    0.299999999999999
   0.400000000000001    0.299999999999999                  0.3
   0.400000000000001                  0.3    0.300000000000001
   0.400000000000003                  0.3                  0.3
   0.400000000000002    0.300000000000002    0.300000000000002
                 0.4    0.300000000000003    0.300000000000002
   0.400000000000002    0.299999999999998    0.300000000000001
   0.399999999999999                  0.3    0.300000000000002
   0.399999999999998    0.300000000000004                  0.3
   0.399999999999993    0.300000000000001    0.299999999999998
   0.400000000000001    0.300000000000001    0.299999999999997
   0.400000000000001    0.300000000000004    0.300000000000007
   0.400000000000003    0.300000000000001    0.300000000000002
   0.400000000000006    0.300000000000004                  0.3
                 0.4                  0.3                  0.3
   0.400000000000002    0.299999999999999    0.299999999999999
   0.399999999999998    0.299999999999997    0.299999999999999
   0.400000000000002    0.300000000000004    0.300000000000003
   0.400000000000002    0.299999999999999                  0.3
   0.400000000000003    0.299999999999997                  0.3
   0.400000000000002    0.300000000000003    0.300000000000001
   0.399999999999997    0.300000000000002    0.300000000000001
   0.400000000000001    0.299999999999998    0.300000000000002
   0.400000000000002    0.300000000000001    0.300000000000003
   0.399999999999999    0.299999999999997    0.299999999999996
   0.399999999999993    0.300000000000001    0.299999999999998
   0.399999999999998    0.300000000000004    0.299999999999997
   0.400000000000003    0.300000000000003    0.300000000000019
                 0.4    0.300000000000002    0.300000000000001
   0.400000000000006    0.300000000000002    0.299999999999999
   0.399999999999997    0.299999999999999    0.300000000000001
   0.399999999999999    0.300000000000001    0.299999999999999
   0.399999999999997    0.300000000000002    0.299999999999996
   0.399999999999992    0.300000000000001    0.299999999999993
   0.400000000000001    0.299999999999996                  0.3
   0.400000000000002    0.299999999999998    0.299999999999998
   0.400000000000002    0.299999999999999                  0.3
   0.399999999999995    0.300000000000002    0.300000000000001
   0.399999999999999    0.300000000000004    0.299999999999999
   0.400000000000003                  0.3    0.299999999999997
   0.399999999999999    0.299999999999998    0.299999999999997
   0.400000000000002    0.299999999999999    0.299999999999998
   0.400000000000002                  0.3                  0.3
   0.400000000000001    0.300000000000001    0.299999999999999
   0.399999999999999    0.300000000000002                  0.3
   0.400000000000002    0.300000000000002                  0.3
   0.399999999999997    0.299999999999998    0.299999999999999
   0.400000000000002    0.300000000000002                  0.3
   0.399999999999996    0.299999999999999    0.299999999999997
                 0.4    0.300000000000004                  0.3
                 0.4    0.299999999999998    0.299999999999999
                 0.4    0.299999999999997    0.299999999999996
   0.399999999999997    0.299999999999994    0.299999999999997
   0.399999999999999    0.300000000000004    0.299999999999991
   0.400000000000001    0.300000000000002    0.299999999999998
   0.400000000000005    0.300000000000003    0.299999999999997
   0.399999999999999    0.299999999999997    0.299999999999998
   0.399999999999997    0.300000000000001    0.299999999999999
                 0.4    0.299999999999999                  0.3
   0.400000000000002    0.299999999999997    0.300000000000001
   0.399999999999998    0.300000000000002    0.300000000000001
   0.400000000000002    0.299999999999998    0.300000000000001
   0.399999999999999    0.300000000000002    0.299999999999999
   0.399999999999999    0.299999999999998    0.299999999999999
                 0.4    0.300000000000004    0.299999999999999
   0.400000000000003    0.299999999999994    0.300000000000004
   0.400000000000002                  0.3    0.300000000000004
   0.400000000000004    0.300000000000001                  0.3
   0.399999999999999    0.299999999999998    0.299999999999997
   0.399999999999997    0.299999999999999    0.299999999999999
                 0.4                  0.3    0.300000000000002
                 0.4    0.299999999999999    0.300000000000001
   0.400000000000001    0.300000000000001                  0.3
   0.399999999999997    0.299999999999998    0.299999999999999
   0.399999999999999    0.299999999999999    0.299999999999996
   0.400000000000001    0.300000000000001    0.299999999999995
   0.399999999999999    0.300000000000002                  0.3
                 0.4    0.299999999999997    0.299999999999999
                 0.4    0.300000000000001    0.299999999999999
   0.399999999999994    0.299999999999997    0.299999999999997
   0.400000000000004    0.300000000000002    0.299999999999999
   0.400000000000007    0.299999999999995    0.300000000000004
   0.400000000000003                  0.3    0.300000000000005
   0.400000000000001    0.300000000000003    0.299999999999999
   0.400000000000002    0.299999999999997    0.299999999999995
   0.399999999999993    0.299999999999997    0.299999999999997
   0.400000000000001                  0.3    0.300000000000002
   0.399999999999999    0.299999999999996    0.299999999999998
   0.399999999999998    0.300000000000001    0.300000000000003
                 0.4    0.299999999999998    0.299999999999998
   0.399999999999998    0.299999999999999    0.299999999999995
   0.400000000000007    0.300000000000004    0.299999999999999
   0.400000000000001    0.300000000000002    0.299999999999996
   0.399999999999997    0.299999999999993    0.299999999999997
   0.399999999999996    0.299999999999999    0.299999999999999
   0.399999999999999    0.300000000000002                  0.3
   0.399999999999995    0.300000000000004    0.299999999999999
   0.399999999999997    0.299999999999999    0.299999999999999
   0.399999999999985    0.300000000000001    0.299999999999997
   0.400000000000002                  0.3    0.299999999999999
   0.400000000000008    0.300000000000006    0.300000000000004
   0.399999999999997    0.299999999999993    0.300000000000001
   0.399999999999999                  0.3                  0.3
                 0.4    0.300000000000001    0.299999999999999
   0.399999999999999    0.299999999999999    0.300000000000002
   0.399999999999997                  0.3    0.299999999999998
   0.399999999999994    0.300000000000001    0.299999999999999
   0.399999999999994    0.299999999999992    0.299999999999983
   0.400000000000001    0.299999999999998    0.300000000000005
                 0.4    0.299999999999999    0.300000000000002
                 0.4    0.300000000000001    0.299999999999999
   0.400000000000002    0.300000000000001    0.299999999999999
   0.399999999999999    0.299999999999999    0.299999999999999
   0.400000000000004    0.299999999999995    0.299999999999996
                 0.4    0.299999999999994    0.299999999999999
   0.400000000000001    0.299999999999999    0.300000000000001
   0.400000000000003    0.300000000000002    0.300000000000008
   0.399999999999998    0.299999999999999    0.300000000000001
   0.399999999999998    0.299999999999998                  0.3
   0.400000000000006    0.300000000000001                  0.3
SCALARS E double 1
LOOKUP_TABLE default
    2.67542918675022
    2.67762682065568
    2.67358322402692
     2.6736665469188
    2.67445728724368
    2.67721195341199
    2.67746458215777
    2.67477649828344
    2.63280591016031
     2.6456262458534
    2.69804185812236
    2.70633517498725
     2.6333819686419
     2.6492009447266
     2.6944897301698
    2.70224805069773
    2.63401466809754
     2.6503084516126
    2.70214777998575
    2.70050142391052
    2.62884406051745
    2.64438777570346
    2.69539646993431
    2.71695120039441
    2.63287560235263
    2.65032326523512
     2.6982157540646
    2.70200510647326
    2.63368151112754
    2.64872521771709
     2.6907296999711
     2.6987457401208
    2.63163141301149
    2.65037844665809
    2.69922523616883
    2.69931804859205
    2.63345911903038
    2.64893336554057
    2.69333650838999
    2.70661279591666
    2.63202566571274
    2.64423240872769
    2.69056264410892
    2.71117741830453
    2.63278813821362
    2.64915392215377
    2.69064502763677
    2.70597531794781
    2.63397744015355
    2.64863232757123
    2.69154022850236
    2.70651438054297
    2.63231889354289
    2.65248271648016
    2.69170667621604
    2.70612819719707
    2.64971538552553
    2.69956799961528
    2.69802407595576
    2.66196038642647
    2.70360201899223
    2.69696679325867
    2.65055074930733
    2.63445018144835
     2.7069239092407
    2.67094511772948
    2.62464944099954
    2.66290983595044
    2.66657474461462
    2.63413864795789
    2.65294258097766
     2.6803605739591
    2.64328219812837
    2.68853978143367
    2.69671447815988
    2.67249076538554
    2.68992293284678
    2.69829836347701
    2.66038687011818
      2.647118061863
    2.70110325563471
    2.66984511539767
    2.63120179338505
    2.65882134200247
    2.67228189172352
    2.64016177987101
    2.65909977206295
     2.6723207570631
    2.65339131564518
    2.70003120715809
    2.70525123954768
    2.66789853303521
    2.69182273166502
    2.70908273018259
    2.67522626033261
    2.63098728461566
    2.70839598141342
    2.65718245353638
      2.634307889205
    2.64733828379058
    2.66352138928348
    2.63360277393014
    2.65438290219717
    2.69686360813148
    2.64550236420414
    2.69040420702347
    2.70180157468831
    2.67254853197255
    2.68894511259752
    2.69908369332123
    2.67619885926202
    2.64026892370107
    2.70645224056783
    2.66628961058748
    2.64000156103177
     2.6418641631487
    2.67125894832266
    2.64252018798229
    2.65386679740714
    2.68189091731011
    2.65486553208452
    2.69878464586859
    2.70728901851744
    2.66007158348617
    2.70005935717928
    2.69401665645468
    2.64620512027704
    2.63518360575183
    2.70353361000072
    2.65433446305791
     2.6406613509906
    2.65166317434714
    2.65924383374201
    2.62854618780019
    2.65664708371515
    2.69534233807991
    2.64480013592713
    2.69022406791784
    2.70634969847107
    2.67075362129888
    2.68807217584132
    2.70156241283666
    2.66504562955383
    2.64364463949538
    2.70205369207705
     2.6673787533225
    2.64199802263144
    2.65010256481883
    2.66862976364322
    2.63484633062042
    2.65512975317629
    2.68319112095551
    2.65187426977784
    2.65815109454312
    2.64169171118776
    2.69748607635486
    2.63257812270146
    2.67391159927371
    2.69690061540622
    2.64063954372612
    2.66854374492899
    2.63675708409089
    2.68998550030822
    2.69423972931896
    2.66063859337867
    2.64723716177209
     2.6439891611377
    2.68791809131905
    2.69256444585907
     2.6476921762491
    2.69012797682179
    2.66840063787679
    2.64875239918713
    2.64709480719722
    2.64818231066915
    2.66479676612998
    2.68554157947377
    2.69405663611583
SCALARS p double 1
LOOKUP_TABLE default
                   1
                   1
                   1
   0.999999999999999
                   1
                   1
                   1
   0.999999999999999
                   1
                   1
                   1
                   1
                   1
                   1
                   1
                   1
                   1
                   1
   0.999999999999999
                   1
                   1
                   1
                   1
                   1
                   1
                   1
   0.999999999999999
                   1
                   1
                   1
                   1
                   1
                   1
                   1
                   1
                   1
                   1
                   1
                   1
                   1
                   1
                   1
                   1
                   1
   0.999999999999998
                   1
                   1
   0.999999999999999
                   1
                   1
                   1
   0.999999999999999
   0.999999999999999
                   1