# vtk DataFile Version 3.0
Tetrahedral mesh
ASCII
DATASET UNSTRUCTURED_GRID
POINTS 178 double
                   0                    0                    2
                   0                    0                    0
                   0                    2                    2
                   0                    2                    0
                   2                    0                    2
                   2                    0                    0
                   2                    2                    2
                   2                    2                    0
                   0                    0                  0.4
                   0                    0                  0.8
                   0                    0                  1.2
                   0                    0                  1.6
                   0                  0.4                    2
                   0                  0.8                    2
                   0                  1.2                    2
                   0                  1.6                    2
                   0                    2                  0.4
                   0                    2                  0.8
                   0                    2                  1.2
                   0                    2                  1.6
                   0                  0.4                    0
                   0                  0.8                    0
                   0                  1.2                    0
                   0                  1.6                    0
                   2                    0                  0.4
                   2                    0                  0.8
                   2                    0                  1.2
                   2                    0                  1.6
                   2                  0.4                    2
                   2                  0.8                    2
                   2                  1.2                    2
                   2                  1.6                    2
                   2                    2                  0.4
                   2                    2                  0.8
                   2                    2                  1.2
                   2                    2                  1.6
                   2                  0.4                    0
                   2                  0.8                    0
                   2                  1.2                    0
                   2                  1.6                    0
                 0.4                    0                    0
                 0.8                    0                    0
                 1.2                    0                    0
                 1.6                    0                    0
                 0.4                    0                    2
                 0.8                    0                    2
                 1.2                    0                    2
                 1.6                    0                    2
                 0.4                    2                    0
                 0.8                    2                    0
                 1.2                    2                    0
                 1.6                    2                    0
                 0.4                    2                    2
                 0.8                    2                    2
                 1.2                    2                    2
                 1.6                    2                    2
                   0                  0.4                  0.4
                   0                  0.8                  0.4
                   0                  1.2                  0.4
                   0                  1.6                  0.4
                   0                  0.4                  0.8
                   0                  0.8                  0.8
                   0                  1.2                  0.8
                   0                  1.6                  0.8
                   0                  0.4                  1.2
                   0                  0.8                  1.2
                   0                  1.2                  1.2
                   0                  1.6                  1.2
                   0                  0.4                  1.6
                   0                  0.8                  1.6
                   0                  1.2                  1.6
                   0                  1.6                  1.6
                   2                  0.4                  0.4
                   2                  0.8                  0.4
                   2                  1.2                  0.4
                   2                  1.6                  0.4
                   2                  0.4                  0.8
                   2                  0.8                  0.8
                   2                  1.2                  0.8
                   2                  1.6                  0.8
                   2                  0.4                  1.2
                   2                  0.8                  1.2
                   2                  1.2                  1.2
                   2                  1.6                  1.2
                   2                  0.4                  1.6
                   2                  0.8                  1.6
                   2                  1.2                  1.6
                   2                  1.6                  1.6
                 0.4                    0                  0.4
                 0.4                    0                  0.8
                 0.4                    0                  1.2
                 0.4                    0                  1.6
                 0.8                    0                  0.4
                 0.8                    0                  0.8
                 0.8                    0                  1.2
                 0.8                    0                  1.6
                 1.2                    0                  0.4
                 1.2                    0                  0.8
                 1.2                    0                  1.2
                 1.2                    0                  1.6
                 1.6                    0                  0.4
                 1.6                    0                  0.8
                 1.6                    0                  1.2
                 1.6                    0                  1.6
                 0.4                    2                  0.4
                 0.4                    2                  0.8
                 0.4                    2                  1.2
                 0.4                    2                  1.6
                 0.8                    2                  0.4
                 0.8                    2                  0.8
                 0.8                    2                  1.2
                 0.8                    2                  1.6
                 1.2                    2                  0.4
                 1.2                    2                  0.8
                 1.2                    2                  1.2
                 1.2                    2                  1.6
                 1.6                    2                  0.4
                 1.6                    2                  0.8
                 1.6                    2                  1.2
                 1.6                    2                  1.6
                 0.4                  0.4                    0
                 0.8                  0.4                    0
                 1.2                  0.4                    0
                 1.6                  0.4                    0
                 0.4                  0.8                    0
                 0.8                  0.8                    0
                 1.2                  0.8                    0
                 1.6                  0.8                    0
                 0.4                  1.2                    0
                 0.8                  1.2                    0
                 1.2                  1.2                    0
                 1.6                  1.2                    0
                 0.4                  1.6                    0
                 0.8                  1.6                    0
                 1.2                  1.6                    0
                 1.6                  1.6                    0
                 0.4                  0.4                    2
                 0.8                  0.4                    2
                 1.2                  0.4                    2
                 1.6                  0.4                    2
                 0.4                  0.8                    2
                 0.8                  0.8                    2
                 1.2                  0.8                    2
                 1.6                  0.8                    2
                 0.4                  1.2                    2
                 0.8                  1.2                    2
                 1.2                  1.2                    2
                 1.6                  1.2                    2
                 0.4                  1.6                    2
                 0.8                  1.6                    2
                 1.2                  1.6                    2
                 1.6                  1.6                    2
   0.214618370086772     1.86736337418972    0.132050051478219
    0.14520937108617     1.78358511734907    0.216359517279464
   0.103650992704651     0.57854564054051     1.48032615432547
   0.243754485506024     1.43194258657138     1.54443597697061
   0.587555252460512   0.0778649938950625     1.54479400769398
[...]
POINT_DATA 178
SCALARS rho double 1
LOOKUP_TABLE default
   0.971999942371414
    0.95828848969168
   0.982148052353818
   0.981098459637712
   0.981047625974878
    0.96563052080165
    0.96873832693371
   0.980606015329985
    1.18497548906975
    1.10135434767581
   0.883315543551622
   0.860715154965025
    1.18320529246538
    1.07802863075777
   0.911943668974184
   0.890226977669803
    1.17574649486976
    1.07757653885975
   0.867133278302703
   0.882915674611833
    1.20752783860943
    1.10507391026728
   0.909003123969557
   0.837799419399048
    1.18441112419704
    1.07504159443248
   0.881865169943595
   0.874694122050692
    1.17998108919012
    1.07462362540596
   0.926594672547757
   0.906491214541514
    1.18791508373528
    1.07356835545953
    0.87923196902764
   0.884230590724999
     1.1818463519254
    1.07953460173206
   0.917283673315611
   0.878244550995483
    1.16800087237322
    1.12457230023199
   0.888701048046553
   0.811690966544232
     1.1641582703316
    1.10201446541657
   0.889096647584843
    0.83502519417158
    1.15755444910149
    1.10241003800874
   0.884897504275529
   0.835463801042119
    1.16389228527161
      1.084193582995
   0.883875562696135
   0.839908179766334
    1.10162865121864
   0.843639908694229
   0.883472865960282
    1.03198527854332
   0.831593112678323
   0.900881249157167
    1.07516894130285
    1.12584416153102
   0.833678339073311
   0.995841963590664
    1.16607051398529
    1.00906905810145
    1.01355447562965
    1.13125502005922
    1.06164669105386
   0.978655141989087
    1.13712598112979
   0.899770496284862
   0.884302776295985
   0.994065371807326
   0.897081022841267
   0.903080581777655
    1.03589486000473
    1.07031758150706
   0.859676907732909
   0.999886259471284
    1.13920862539873
     1.0258705126832
   0.984351541686674
    1.09763407540286
    1.03697079025398
    1.00231913668169
    1.09140314392852
   0.840196367317065
   0.873379363961207
    1.02364952372491
   0.878696625194938
   0.841740919916513
   0.974518303455552
    1.18129593197595
   0.807000261968169
    1.06584176967578
    1.13794581584238
    1.11104695660466
    1.04852020600719
    1.15876450355612
    1.06265841608017
   0.880448456785494
    1.11947352573103
    0.88546354304559
   0.882549660924213
     1.0039925445311
   0.890357169476285
   0.900213837979266
   0.971551747255559
    1.13314760211185
   0.811790359947886
     1.0278139729438
    1.11131095259537
    1.13484699867194
    1.01880410135668
    1.11126776290388
    1.06043762642443
    0.93921589698222
    1.08484022058559
   0.852173424060936
   0.825730805595173
    1.05704149847026
   0.835999708490132
   0.875054101111103
     1.1088881076779
    1.13555775484375
   0.869295116166974
    1.08385655420036
     1.1193042969931
    1.05894021508722
    1.04700284476344
    1.18488235857455
    1.03550292233699
   0.901273824832403
    1.12966929015007
   0.889227492194855
   0.830250312329129
    1.00100031899765
   0.887385118494652
   0.839663912151058
    1.03274386019856
    1.09758862604106
   0.869829549515947
    1.01554872093636
    1.11607779618145
    1.07599521730362
    1.01258850756489
    1.15547447870583
     1.0492336261482
   0.945808591641184
    1.07972176403254
    1.05766095648685
     1.1279319410754
   0.861562822626724
    1.18078770772988
   0.957528616361751
   0.903186717297432
    1.15801579891751
    1.01780792518219
    1.14802433230091
    0.91898202384967
   0.892888328353539
    1.04637013031823
    1.13791573763684
    1.12838046072959
   0.893550326542874
    0.88859161107332
    1.13457031342045
   0.904533085869317
    1.02490797436078
    1.09227828463708
     1.1331961573136
    1.13604930264828
     1.0214099576954
   0.886069503454473
   0.904036142249801
VECTORS velocity double
   0.399999999999999    0.299999999999999    0.299999999999998
   0.399999999999999    0.299999999999998    0.299999999999998
   0.399999999999999    0.299999999999996    0.300000000000001
   0.399999999999998    0.299999999999997    0.299999999999999
   0.399999999999997                  0.3    0.299999999999998
   0.399999999999998    0.299999999999997    0.299999999999998
   0.399999999999997    0.299999999999995    0.299999999999999
   0.399999999999997    0.299999999999996    0.299999999999998
   0.399999999999996    0.299999999999997    0.299999999999998
                 0.4                  0.3    0.299999999999998
   0.399999999999997    0.299999999999999    0.299999999999999
   0.399999999999997    0.299999999999997    0.300000000000003
   0.400000000000001    0.300000000000003    0.299999999999999
                 0.4    0.299999999999998    0.300000000000006
   0.399999999999999    0.299999999999999    0.300000000000001
   0.400000000000003    0.299999999999998    0.300000000000002
   0.399999999999998    0.299999999999997    0.299999999999997
   0.400000000000001    0.300000000000001    0.299999999999999
   0.399999999999994    0.299999999999998    0.299999999999999
   0.399999999999998    0.299999999999996                  0.3
   0.400000000000002    0.300000000000001                  0.3
   0.399999999999997    0.299999999999997    0.300000000000004
   0.399999999999996    0.299999999999997    0.300000000000002
                 0.4    0.299999999999997    0.300000000000001
   0.399999999999995    0.299999999999996    0.299999999999998
   0.399999999999998    0.299999999999999    0.299999999999999
   0.399999999999997    0.299999999999999    0.299999999999999
   0.399999999999998    0.299999999999998    0.300000000000001
   0.400000000000001    0.300000000000002    0.299999999999998
   0.399999999999998                  0.3    0.300000000000004
   0.399999999999998                  0.3    0.300000000000001
   0.400000000000001                  0.3    0.300000000000002
   0.399999999999997    0.299999999999995    0.299999999999998
   0.400000000000001    0.300000000000003    0.299999999999999
   0.399999999999994    0.299999999999999                  0.3
   0.399999999999998    0.299999999999995                  0.3
   0.400000000000002                  0.3    0.299999999999999
   0.399999999999995    0.299999999999997    0.300000000000003
   0.399999999999994    0.299999999999997    0.300000000000002
   0.399999999999998    0.299999999999997    0.299999999999998
   0.400000000000001    0.299999999999998    0.300000000000003
   0.400000000000005    0.300000000000001    0.300000000000001
   0.400000000000001    0.300000000000007                  0.3
   0.399999999999999    0.299999999999998    0.299999999999999
   0.400000000000003    0.299999999999997    0.300000000000004
   0.400000000000004    0.300000000000002    0.300000000000001
   0.399999999999998     0.30000000000001                  0.3
   0.399999999999997    0.299999999999995    0.299999999999998
   0.400000000000001    0.299999999999998    0.300000000000002
   0.400000000000007    0.300000000000002    0.300000000000001
   0.400000000000001    0.300000000000005    0.299999999999999
   0.399999999999999    0.299999999999997                  0.3
   0.400000000000002    0.299999999999996    0.300000000000003
   0.400000000000007    0.300000000000005    0.300000000000001
   0.399999999999998    0.300000000000013    0.300000000000001
   0.399999999999998    0.299999999999997    0.299999999999997
                 0.4    0.299999999999997    0.299999999999999
                 0.4    0.299999999999998                  0.3
   0.399999999999997    0.299999999999999                  0.3
   0.400000000000002    0.299999999999998    0.300000000000001
                 0.4    0.300000000000001    0.299999999999999
   0.400000000000004    0.300000000000003                  0.3
   0.400000000000002    0.300000000000002                  0.3
   0.400000000000001    0.300000000000002    0.300000000000001
   0.400000000000001    0.299999999999997    0.300000000000002
   0.399999999999999    0.300000000000002                  0.3
   0.400000000000001    0.300000000000002    0.299999999999999
   0.399999999999994    0.299999999999998    0.299999999999997
   0.399999999999999    0.300000000000001    0.299999999999998
                 0.4    0.300000000000005    0.300000000000005
   0.400000000000004    0.300000000000003    0.300000000000002
   0.400000000000005    0.300000000000003                  0.3
   0.400000000000001                  0.3    0.300000000000001
   0.400000000000002    0.299999999999998                  0.3
   0.399999999999997    0.299999999999997                  0.3
   0.400000000000003    0.300000000000002    0.300000000000003
   0.400000000000003                  0.3    0.299999999999998
   0.400000000000004    0.300000000000001                  0.3
   0.400000000000002    0.300000000000003                  0.3
   0.399999999999998    0.300000000000001    0.300000000000001
   0.400000000000001    0.299999999999997    0.300000000000002
   0.400000000000002    0.300000000000003    0.300000000000001
                 0.4    0.299999999999998    0.299999999999995
   0.399999999999994    0.299999999999999    0.299999999999997
   0.399999999999995    0.300000000000003    0.299999999999997
   0.400000000000003    0.300000000000005    0.300000000000014
   0.399999999999999    0.300000000000002                  0.3
   0.400000000000005    0.300000000000001    0.299999999999999
   0.399999999999997    0.299999999999996                  0.3
   0.400000000000002    0.300000000000001                  0.3
   0.399999999999992    0.300000000000002    0.299999999999994
   0.399999999999992                  0.3    0.299999999999992
   0.400000000000002    0.299999999999994                  0.3
   0.400000000000004    0.299999999999996    0.299999999999997
   0.400000000000001                  0.3    0.300000000000001
   0.399999999999995    0.300000000000003                  0.3
   0.399999999999998    0.300000000000002    0.299999999999999
   0.400000000000001    0.299999999999998    0.299999999999995
   0.399999999999998    0.299999999999998    0.299999999999995
                 0.4    0.299999999999999                  0.3
   0.400000000000002                  0.3    0.299999999999999
   0.400000000000002                  0.3    0.299999999999996
                 0.4    0.300000000000001    0.299999999999998
   0.400000000000001    0.300000000000001    0.299999999999999
   0.399999999999999    0.299999999999996                  0.3
   0.400000000000004    0.300000000000003    0.300000000000003
   0.399999999999992    0.299999999999999    0.299999999999995
                 0.4    0.300000000000003    0.299999999999999
                 0.4    0.299999999999995    0.299999999999998
   0.400000000000001    0.299999999999996    0.299999999999995
   0.399999999999995    0.299999999999994    0.299999999999996
   0.399999999999999    0.300000000000004    0.299999999999994
   0.400000000000002    0.300000000000001    0.299999999999997
   0.400000000000005    0.300000000000002    0.299999999999995
   0.399999999999998    0.299999999999997    0.299999999999996
   0.399999999999998    0.300000000000001    0.300000000000002
   0.399999999999999    0.299999999999999    0.299999999999999
   0.400000000000002    0.299999999999997    0.299999999999997
   0.399999999999998    0.300000000000001                  0.3
   0.399999999999999    0.299999999999997    0.300000000000001
   0.400000000000001                  0.3    0.299999999999998
   0.399999999999997    0.299999999999999    0.299999999999998
   0.399999999999995    0.300000000000005    0.299999999999996
   0.400000000000003    0.299999999999997    0.300000000000004
   0.400000000000001    0.300000000000003    0.300000000000006
   0.400000000000003    0.300000000000002    0.300000000000002
   0.400000000000001    0.299999999999998    0.299999999999996
   0.400000000000001                  0.3    0.299999999999999
   0.399999999999999    0.300000000000002    0.300000000000005
   0.400000000000001    0.299999999999999    0.300000000000003
   0.400000000000001                  0.3    0.300000000000001
   0.399999999999997                  0.3    0.299999999999998
                 0.4                  0.3                  0.3
                 0.4    0.300000000000001    0.299999999999998
   0.400000000000001    0.300000000000003    0.300000000000004
   0.399999999999999    0.299999999999997                  0.3
   0.400000000000003    0.300000000000002                  0.3
   0.399999999999991    0.299999999999998    0.299999999999996
                 0.4    0.300000000000002    0.299999999999996
   0.400000000000008    0.299999999999996    0.300000000000004
   0.400000000000001    0.300000000000002    0.300000000000006
                 0.4    0.300000000000007    0.300000000000002
   0.400000000000004    0.299999999999996    0.299999999999994
   0.399999999999998    0.299999999999998    0.299999999999998
                 0.4    0.300000000000002    0.300000000000007
   0.399999999999999    0.299999999999996    0.300000000000001
   0.399999999999999    0.300000000000001    0.300000000000004
                 0.4    0.299999999999998    0.299999999999996
                 0.4                  0.3    0.299999999999999
   0.400000000000004    0.300000000000003                  0.3
   0.400000000000003    0.300000000000003    0.300000000000001
   0.399999999999995    0.299999999999993                  0.3
   0.399999999999999    0.299999999999996                  0.3
   0.400000000000004                  0.3    0.300000000000002
   0.399999999999995    0.300000000000003    0.299999999999999
   0.399999999999997    0.299999999999999    0.299999999999999
   0.399999999999988    0.300000000000001    0.299999999999997
   0.400000000000003    0.299999999999998    0.299999999999997
   0.400000000000007    0.300000000000006    0.300000000000005
   0.400000000000001    0.299999999999996    0.300000000000002
   0.399999999999998    0.300000000000001                  0.3
                 0.4    0.300000000000001    0.299999999999998
   0.399999999999996    0.299999999999997    0.300000000000003
   0.399999999999997                  0.3    0.299999999999999
   0.399999999999994    0.299999999999999                  0.3
   0.399999999999991    0.299999999999992    0.299999999999984
   0.400000000000001    0.299999999999997    0.300000000000003
   0.400000000000002    0.299999999999999    0.300000000000002
   0.400000000000002    0.300000000000001    0.299999999999997
                 0.4    0.300000000000002    0.299999999999998
                 0.4    0.299999999999998    0.299999999999999
   0.400000000000004    0.299999999999995    0.299999999999997
   0.399999999999999    0.299999999999995    0.299999999999997
   0.400000000000002    0.300000000000002    0.300000000000002
   0.400000000000005    0.300000000000003    0.300000000000007
   0.399999999999998    0.299999999999999    0.300000000000002
   0.399999999999997    0.299999999999997                  0.3
   0.400000000000005    0.300000000000002    0.299999999999999
SCALARS E double 1
LOOKUP_TABLE default
    2.66523999020314
    2.66290904324758
    2.66696516890015
    2.66678673813841
    2.66677809641573
    2.66415718853628
    2.66468551557873
    2.66670302260609
    2.70144583314185
    2.68723023910489
    2.65016364240378
    2.64632157634405
    2.70114489971912
    2.68326486722882
     2.6550304237256
    2.65133858620386
    2.69987690412786
    2.68318801160617
    2.64741265731146
    2.65009566468401
     2.7052797325636
    2.68786256474543
    2.65453053107482
    2.64242590129783
     2.7013498911135
    2.68275707105353
    2.64991707889041
    2.64869800074862
    2.70059678516232
    2.68268601631901
    2.65752109433311
    2.65410350647206
      2.701945564235
    2.68250662042813
     2.6494694347347
    2.65031920042325
    2.70091387982732
    2.68352088229445
    2.65593822446364
    2.64930157366923
    2.69856014830345
    2.69117729103944
    2.65107917816793
    2.63798746431252
    2.69790690595637
    2.68734245912082
    2.65114643008944
    2.64195428300917
    2.69678425634725
    2.68740970646149
    2.65043257572685
    2.64202884617716
    2.69786168849617
    2.68431290910916
    2.65025884565835
    2.64278439056028
    2.68727687070717
    2.64341878447802
    2.65019038721325
    2.67543749735236
    2.64137082915531
    2.65314981235672
    2.68277872002149
    2.69139350746028
    2.64172531764246
    2.66929313381041
     2.6982319873775
    2.67154173987725
    2.67230426085704
    2.69231335341008
    2.68047993747916
    2.66637137413815
    2.69331141679207
    2.65296098436843
    2.65033147197031
    2.66899111320725
    2.65250377388302
     2.6535236989022
    2.67610212620081
    2.68195398885621
     2.6461450743146
    2.66998066411012
    2.69366546631778
    2.67439798715615
    2.66733976208674
     2.6865977928185
    2.67628503434318
    2.67039425323589
    2.68553853446785
     2.6428333824439
     2.6484744918734
    2.67402041903323
    2.64937842628314
    2.64309595638581
    2.66566811158745
    2.70082030843591
     2.6371900445346
    2.68119310084489
     2.6934507886932
     2.6888779826228
    2.67824843502123
    2.69698996560455
    2.68065193073363
    2.64967623765354
    2.69031049937427
    2.65052880231775
    2.65003344235711
    2.67067873257028
    2.65136071881097
    2.65303635245648
    2.66516379703345
    2.69263509235901
    2.63800436119115
    2.67472837540046
    2.68892286194122
    2.69292398977423
    2.67319669723064
    2.68891551969367
    2.68027439649215
    2.65966670248698
    2.68442283749955
    2.64486948209037
    2.64037423695118
    2.67969705473995
    2.64211995044332
    2.64875919718889
    2.68851097830524
    2.69304481832344
    2.64778016974838
    2.68425561421406
    2.69028173048883
    2.68001983656482
    2.67799048360978
    2.70143000095767
    2.67603549679729
     2.6532165502215
    2.69204377932551
    2.65116867367313
    2.64114255309596
    2.67017005422961
    2.65085547014409
    2.64274286506568
    2.67556645623376
    2.68659006642698
    2.64787102341771
    2.67264328255918
    2.68973322535084
    2.68291918694162
    2.67214004628603
    2.69643066137999
     2.6783697164452
      2.660787460579
    2.68355269988553
    2.67980236260276
    2.69174842998282
    2.64646567984654
    2.70073391031407
     2.6627798647815
    2.65354174194057
    2.69686268581598
    2.67302734728098
    2.69516413649116
    2.65622694405444
    2.65179101582011
     2.6778829221541
    2.69344567539825
    2.69182467832403
    2.65190355551228
    2.65106057388247
    2.69287695328148
    2.65377062459778
    2.67423435564133
     2.6856873083883
    2.69264334674331
    2.69312838145022
    2.67363969280822
    2.65063181558726
    2.65368614418246
SCALARS p double 1
LOOKUP_TABLE default
                   1
   0.999999999999999
                   1
   0.999999999999998
                   1
   0.999999999999999
   0.999999999999999
   0.999999999999998
   0.999999999999999
                   1
                   1
   0.999999999999998
                   1
   0.999999999999999
   0.999999999999997
   0.999999999999998
                   1
                   1
                   1
                   1
                   1
   0.999999999999998
   0.999999999999997
   0.999999999999997
                   1
                   1
                   1
                   1
                   1
                   1
   0.999999999999997
   0.999999999999999
                   1
                   1
                   1
                   1
   0.999999999999999
   0.999999999999999
   0.999999999999997
   0.999999999999998
                   1
                   1
                   1
                   1
                   1
   0.999999999999999
    1.00000000000001
                   1
                   1
                   1
                   1
                   1
   0.999999999999999
                   1