TITLE="Tetrahedral mesh"
VARIABLES= "x" "y" "z" "rho" "vx" "vy" "vz" "E" "p"
ZONE T="none",N=178,E=525,ET=TETRAHEDRON, F=FEPOINT
                   0	                   0	                   2	   0.971999942371414	   0.399999999999999	   0.299999999999999	   0.299999999999998	    2.66523999020314	                   1
                   0	                   0	                   0	    0.95828848969168	   0.399999999999999	   0.299999999999998	   0.299999999999998	    2.66290904324758	   0.999999999999999
                   0	                   2	                   2	   0.982148052353818	   0.399999999999999	   0.299999999999996	   0.300000000000001	    2.66696516890015	                   1
                   0	                   2	                   0	   0.981098459637712	   0.399999999999998	   0.299999999999997	   0.299999999999999	    2.66678673813841	   0.999999999999998
                   2	                   0	                   2	   0.981047625974878	   0.399999999999997	                 0.3	   0.299999999999998	    2.66677809641573	                   1
                   2	                   0	                   0	    0.96563052080165	   0.399999999999998	   0.299999999999997	   0.299999999999998	    2.66415718853628	   0.999999999999999
                   2	                   2	                   2	    0.96873832693371	   0.399999999999997	   0.299999999999995	   0.299999999999999	    2.66468551557873	   0.999999999999999
                   2	                   2	                   0	   0.980606015329985	   0.399999999999997	   0.299999999999996	   0.299999999999998	    2.66670302260609	   0.999999999999998
                   0	                   0	                 0.4	    1.18497548906975	   0.399999999999996	   0.299999999999997	   0.299999999999998	    2.70144583314185	   0.999999999999999
                   0	                   0	                 0.8	    1.10135434767581	                 0.4	                 0.3	   0.299999999999998	    2.68723023910489	                   1
                   0	                   0	                 1.2	   0.883315543551622	   0.399999999999997	   0.299999999999999	   0.299999999999999	    2.65016364240378	                   1
                   0	                   0	                 1.6	   0.860715154965025	   0.399999999999997	   0.299999999999997	   0.300000000000003	    2.64632157634405	   0.999999999999998
                   0	                 0.4	                   2	    1.18320529246538	   0.400000000000001	   0.300000000000003	   0.299999999999999	    2.70114489971912	                   1
                   0	                 0.8	                   2	    1.07802863075777	                 0.4	   0.299999999999998	   0.300000000000006	    2.68326486722882	   0.999999999999999
                   0	                 1.2	                   2	   0.911943668974184	   0.399999999999999	   0.299999999999999	   0.300000000000001	     2.6550304237256	   0.999999999999997
                   0	                 1.6	                   2	   0.890226977669803	   0.400000000000003	   0.299999999999998	   0.300000000000002	    2.65133858620386	   0.999999999999998
                   0	                   2	                 0.4	    1.17574649486976	   0.399999999999998	   0.299999999999997	   0.299999999999997	    2.69987690412786	                   1
                   0	                   2	                 0.8	    1.07757653885975	   0.400000000000001	   0.300000000000001	   0.299999999999999	    2.68318801160617	                   1
                   0	                   2	                 1.2	   0.867133278302703	   0.399999999999994	   0.299999999999998	   0.299999999999999	    2.64741265731146	                   1
                   0	                   2	                 1.6	   0.882915674611833	   0.399999999999998	   0.299999999999996	                 0.3	    2.65009566468401	                   1
                   0	                 0.4	                   0	    1.20752783860943	   0.400000000000002	   0.300000000000001	                 0.3	     2.7052797325636	                   1
                   0	                 0.8	                   0	    1.10507391026728	   0.399999999999997	   0.299999999999997	   0.300000000000004	    2.68786256474543	   0.999999999999998
                   0	                 1.2	                   0	   0.909003123969557	   0.399999999999996	   0.299999999999997	   0.300000000000002	    2.65453053107482	   0.999999999999997
                   0	                 1.6	                   0	   0.837799419399048	                 0.4	   0.299999999999997	   0.300000000000001	    2.64242590129783	   0.999999999999997
                   2	                   0	                 0.4	    1.18441112419704	   0.399999999999995	   0.299999999999996	   0.299999999999998	     2.7013498911135	                   1
                   2	                   0	                 0.8	    1.07504159443248	   0.399999999999998	   0.299999999999999	   0.299999999999999	    2.68275707105353	                   1
                   2	                   0	                 1.2	   0.881865169943595	   0.399999999999997	   0.299999999999999	   0.299999999999999	    2.64991707889041	                   1
                   2	                   0	                 1.6	   0.874694122050692	   0.399999999999998	   0.299999999999998	   0.300000000000001	    2.64869800074862	                   1
                   2	                 0.4	                   2	    1.17998108919012	   0.400000000000001	   0.300000000000002	   0.299999999999998	    2.70059678516232	                   1
                   2	                 0.8	                   2	    1.07462362540596	   0.399999999999998	                 0.3	   0.300000000000004	    2.68268601631901	                   1
                   2	                 1.2	                   2	   0.926594672547757	   0.399999999999998	                 0.3	   0.300000000000001	    2.65752109433311	   0.999999999999997
                   2	                 1.6	                   2	   0.906491214541514	   0.400000000000001	                 0.3	   0.300000000000002	    2.65410350647206	   0.999999999999999
                   2	                   2	                 0.4	    1.18791508373528	   0.399999999999997	   0.299999999999995	   0.299999999999998	      2.701945564235	                   1
                   2	                   2	                 0.8	    1.07356835545953	   0.400000000000001	   0.300000000000003	   0.299999999999999	    2.68250662042813	                   1
                   2	                   2	                 1.2	    0.87923196902764	   0.399999999999994	   0.299999999999999	                 0.3	     2.6494694347347	                   1
                   2	                   2	                 1.6	   0.884230590724999	   0.399999999999998	   0.299999999999995	                 0.3	    2.65031920042325	                   1
                   2	                 0.4	                   0	     1.1818463519254	   0.400000000000002	                 0.3	   0.299999999999999	    2.70091387982732	   0.999999999999999
                   2	                 0.8	                   0	    1.07953460173206	   0.399999999999995	   0.299999999999997	   0.300000000000003	    2.68352088229445	   0.999999999999999
                   2	                 1.2	                   0	   0.917283673315611	   0.399999999999994	   0.299999999999997	   0.300000000000002	    2.65593822446364	   0.999999999999997
                   2	                 1.6	                   0	   0.878244550995483	   0.399999999999998	   0.299999999999997	   0.299999999999998	    2.64930157366923	   0.999999999999998
                 0.4	                   0	                   0	    1.16800087237322	   0.400000000000001	   0.299999999999998	   0.300000000000003	    2.69856014830345	                   1
                 0.8	                   0	                   0	    1.12457230023199	   0.400000000000005	   0.300000000000001	   0.300000000000001	    2.69117729103944	                   1
                 1.2	                   0	                   0	   0.888701048046553	   0.400000000000001	   0.300000000000007	                 0.3	    2.65107917816793	                   1
                 1.6	                   0	                   0	   0.811690966544232	   0.399999999999999	   0.299999999999998	   0.299999999999999	    2.63798746431252	                   1
                 0.4	                   0	                   2	     1.1641582703316	   0.400000000000003	   0.299999999999997	   0.300000000000004	    2.69790690595637	                   1
                 0.8	                   0	                   2	    1.10201446541657	   0.400000000000004	   0.300000000000002	   0.300000000000001	    2.68734245912082	   0.999999999999999
                 1.2	                   0	                   2	   0.889096647584843	   0.399999999999998	    0.30000000000001	                 0.3	    2.65114643008944	    1.00000000000001
                 1.6	                   0	                   2	    0.83502519417158	   0.399999999999997	   0.299999999999995	   0.299999999999998	    2.64195428300917	                   1
                 0.4	                   2	                   0	    1.15755444910149	   0.400000000000001	   0.299999999999998	   0.300000000000002	    2.69678425634725	                   1
                 0.8	                   2	                   0	    1.10241003800874	   0.400000000000007	   0.300000000000002	   0.300000000000001	    2.68740970646149	                   1
                 1.2	                   2	                   0	   0.884897504275529	   0.400000000000001	   0.300000000000005	   0.299999999999999	    2.65043257572685	                   1
                 1.6	                   2	                   0	   0.835463801042119	   0.399999999999999	   0.299999999999997	                 0.3	    2.64202884617716	                   1
                 0.4	                   2	                   2	    1.16389228527161	   0.400000000000002	   0.299999999999996	   0.300000000000003	    2.69786168849617	   0.999999999999999
                 0.8	                   2	                   2	      1.084193582995	   0.400000000000007	   0.300000000000005	   0.300000000000001	    2.68431290910916	                   1
                 1.2	                   2	                   2	   0.883875562696135	   0.399999999999998	   0.300000000000013	   0.300000000000001	    2.65025884565835	                   1
                 1.6	                   2	                   2	   0.839908179766334	   0.399999999999998	   0.299999999999997	   0.299999999999997	    2.64278439056028	                   1
                   0	                 0.4	                 0.4	    1.10162865121864	                 0.4	   0.299999999999997	   0.299999999999999	    2.68727687070717	                   1
                   0	                 0.8	                 0.4	   0.843639908694229	                 0.4	   0.299999999999998	                 0.3	    2.64341878447802	   0.999999999999999
                   0	                 1.2	                 0.4	   0.883472865960282	   0.399999999999997	   0.299999999999999	                 0.3	    2.65019038721325	   0.999999999999999
                   0	                 1.6	                 0.4	    1.03198527854332	   0.400000000000002	   0.299999999999998	   0.300000000000001	    2.67543749735236	   0.999999999999998
                   0	                 0.4	                 0.8	   0.831593112678323	                 0.4	   0.300000000000001	   0.299999999999999	    2.64137082915531	   0.999999999999999
                   0	                 0.8	                 0.8	   0.900881249157167	   0.400000000000004	   0.300000000000003	                 0.3	    2.65314981235672	   0.999999999999999
                   0	                 1.2	                 0.8	    1.07516894130285	   0.400000000000002	   0.300000000000002	                 0.3	    2.68277872002149	                   1
                   0	                 1.6	                 0.8	    1.12584416153102	   0.400000000000001	   0.300000000000002	   0.300000000000001	    2.69139350746028	                   1
                   0	                 0.4	                 1.2	   0.833678339073311	   0.400000000000001	   0.299999999999997	   0.300000000000002	    2.64172531764246	   0.999999999999999
                   0	                 0.8	                 1.2	   0.995841963590664	   0.399999999999999	   0.300000000000002	                 0.3	    2.66929313381041	                   1
                   0	                 1.2	                 1.2	    1.16607051398529	   0.400000000000001	   0.300000000000002	   0.299999999999999	     2.6982319873775	   0.999999999999999
                   0	                 1.6	                 1.2	    1.00906905810145	   0.399999999999994	   0.299999999999998	   0.299999999999997	    2.67154173987725	                   1
                   0	                 0.4	                 1.6	    1.01355447562965	   0.399999999999999	   0.300000000000001	   0.299999999999998	    2.67230426085704	                   1
                   0	                 0.8	                 1.6	    1.13125502005922	                 0.4	   0.300000000000005	   0.300000000000005	    2.69231335341008	                   1
                   0	                 1.2	                 1.6	    1.06164669105386	   0.400000000000004	   0.300000000000003	   0.300000000000002	    2.68047993747916	                   1
                   0	                 1.6	                 1.6	   0.978655141989087	   0.400000000000005	   0.300000000000003	                 0.3	    2.66637137413815	                   1
                   2	                 0.4	                 0.4	    1.13712598112979	   0.400000000000001	                 0.3	   0.300000000000001	    2.69331141679207	                   1
                   2	                 0.8	                 0.4	   0.899770496284862	   0.400000000000002	   0.299999999999998	                 0.3	    2.65296098436843	                   1
                   2	                 1.2	                 0.4	   0.884302776295985	   0.399999999999997	   0.299999999999997	                 0.3	    2.65033147197031	                   1
                   2	                 1.6	                 0.4	   0.994065371807326	   0.400000000000003	   0.300000000000002	   0.300000000000003	    2.66899111320725	                   1
                   2	                 0.4	                 0.8	   0.897081022841267	   0.400000000000003	                 0.3	   0.299999999999998	    2.65250377388302	                   1
                   2	                 0.8	                 0.8	   0.903080581777655	   0.400000000000004	   0.300000000000001	                 0.3	     2.6535236989022	   0.999999999999998
                   2	                 1.2	                 0.8	    1.03589486000473	   0.400000000000002	   0.300000000000003	                 0.3	    2.67610212620081	                   1
                   2	                 1.6	                 0.8	    1.07031758150706	   0.399999999999998	   0.300000000000001	   0.300000000000001	    2.68195398885621	                   1
                   2	                 0.4	                 1.2	   0.859676907732909	   0.400000000000001	   0.299999999999997	   0.300000000000002	     2.6461450743146	                   1
                   2	                 0.8	                 1.2	   0.999886259471284	   0.400000000000002	   0.300000000000003	   0.300000000000001	    2.66998066411012	   0.999999999999999
                   2	                 1.2	                 1.2	    1.13920862539873	                 0.4	   0.299999999999998	   0.299999999999995	    2.69366546631778	                   1
                   2	                 1.6	                 1.2	     1.0258705126832	   0.399999999999994	   0.299999999999999	   0.299999999999997	    2.67439798715615	                   1
                   2	                 0.4	                 1.6	   0.984351541686674	   0.399999999999995	   0.300000000000003	   0.299999999999997	    2.66733976208674	                   1
                   2	                 0.8	                 1.6	    1.09763407540286	   0.400000000000003	   0.300000000000005	   0.300000000000014	     2.6865977928185	                   1
                   2	                 1.2	                 1.6	    1.03697079025398	   0.399999999999999	   0.300000000000002	                 0.3	    2.67628503434318	                   1
                   2	                 1.6	                 1.6	    1.00231913668169	   0.400000000000005	   0.300000000000001	   0.299999999999999	    2.67039425323589	   0.999999999999999
                 0.4	                   0	                 0.4	    1.09140314392852	   0.399999999999997	   0.299999999999996	                 0.3	    2.68553853446785	                   1
                 0.4	                   0	                 0.8	   0.840196367317065	   0.400000000000002	   0.300000000000001	                 0.3	     2.6428333824439	   0.999999999999999
                 0.4	                   0	                 1.2	   0.873379363961207	   0.399999999999992	   0.300000000000002	   0.299999999999994	     2.6484744918734	   0.999999999999999
                 0.4	                   0	                 1.6	    1.02364952372491	   0.399999999999992	                 0.3	   0.299999999999992	    2.67402041903323	   0.999999999999999
                 0.8	                   0	                 0.4	   0.878696625194938	   0.400000000000002	   0.299999999999994	                 0.3	    2.64937842628314	                   1
                 0.8	                   0	                 0.8	   0.841740919916513	   0.400000000000004	   0.299999999999996	   0.299999999999997	    2.64309595638581	                   1
                 0.8	                   0	                 1.2	   0.974518303455552	   0.400000000000001	                 0.3	   0.300000000000001	    2.66566811158745	                   1
                 0.8	                   0	                 1.6	    1.18129593197595	   0.399999999999995	   0.300000000000003	                 0.3	    2.70082030843591	   0.999999999999998
                 1.2	                   0	                 0.4	   0.807000261968169	   0.399999999999998	   0.300000000000002	   0.299999999999999	     2.6371900445346	                   1
                 1.2	                   0	                 0.8	    1.06584176967578	   0.400000000000001	   0.299999999999998	   0.299999999999995	    2.68119310084489	                   1
                 1.2	                   0	                 1.2	    1.13794581584238	   0.399999999999998	   0.299999999999998	   0.299999999999995	     2.6934507886932	                   1
                 1.2	                   0	                 1.6	    1.11104695660466	                 0.4	   0.299999999999999	                 0.3	     2.6888779826228	                   1
                 1.6	                   0	                 0.4	    1.04852020600719	   0.400000000000002	                 0.3	   0.299999999999999	    2.67824843502123	                   1
                 1.6	                   0	                 0.8	    1.15876450355612	   0.400000000000002	                 0.3	   0.299999999999996	    2.69698996560455	                   1
                 1.6	                   0	                 1.2	    1.06265841608017	                 0.4	   0.300000000000001	   0.299999999999998	    2.68065193073363	                   1
                 1.6	                   0	                 1.6	   0.880448456785494	   0.400000000000001	   0.300000000000001	   0.299999999999999	    2.64967623765354	                   1
                 0.4	                   2	                 0.4	    1.11947352573103	   0.399999999999999	   0.299999999999996	                 0.3	    2.69031049937427	   0.999999999999999
                 0.4	                   2	                 0.8	    0.88546354304559	   0.400000000000004	   0.300000000000003	   0.300000000000003	    2.65052880231775	   0.999999999999999
                 0.4	                   2	                 1.2	   0.882549660924213	   0.399999999999992	   0.299999999999999	   0.299999999999995	    2.65003344235711	                   1
                 0.4	                   2	                 1.6	     1.0039925445311	                 0.4	   0.300000000000003	   0.299999999999999	    2.67067873257028	   0.999999999999999
                 0.8	                   2	                 0.4	   0.890357169476285	                 0.4	   0.299999999999995	   0.299999999999998	    2.65136071881097	                   1
                 0.8	                   2	                 0.8	   0.900213837979266	   0.400000000000001	   0.299999999999996	   0.299999999999995	    2.65303635245648	                   1
                 0.8	                   2	                 1.2	   0.971551747255559	   0.399999999999995	   0.299999999999994	   0.299999999999996	    2.66516379703345	                   1
                 0.8	                   2	                 1.6	    1.13314760211185	   0.399999999999999	   0.300000000000004	   0.299999999999994	    2.69263509235901	   0.999999999999998
                 1.2	                   2	                 0.4	   0.811790359947886	   0.400000000000002	   0.300000000000001	   0.299999999999997	    2.63800436119115	                   1
                 1.2	                   2	                 0.8	     1.0278139729438	   0.400000000000005	   0.300000000000002	   0.299999999999995	    2.67472837540046	                   1
                 1.2	                   2	                 1.2	    1.11131095259537	   0.399999999999998	   0.299999999999997	   0.299999999999996	    2.68892286194122	                   1
                 1.2	                   2	                 1.6	    1.13484699867194	   0.399999999999998	   0.300000000000001	   0.300000000000002	    2.69292398977423	                   1
                 1.6	                   2	                 0.4	    1.01880410135668	   0.399999999999999	   0.299999999999999	   0.299999999999999	    2.67319669723064	                   1
                 1.6	                   2	                 0.8	    1.11126776290388	   0.400000000000002	   0.299999999999997	   0.299999999999997	    2.68891551969367	                   1
                 1.6	                   2	                 1.2	    1.06043762642443	   0.399999999999998	   0.300000000000001	                 0.3	    2.68027439649215	                   1
                 1.6	                   2	                 1.6	    0.93921589698222	   0.399999999999999	   0.299999999999997	   0.300000000000001	    2.65966670248698	                   1
                 0.4	                 0.4	                   0	    1.08484022058559	   0.400000000000001	                 0.3	   0.299999999999998	    2.68442283749955	                   1
                 0.8	                 0.4	                   0	   0.852173424060936	   0.399999999999997	   0.299999999999999	   0.299999999999998	    2.64486948209037	                   1
                 1.2	                 0.4	                   0	   0.825730805595173	   0.399999999999995	   0.300000000000005	   0.299999999999996	    2.64037423695118	                   1
                 1.6	                 0.4	                   0	    1.05704149847026	   0.400000000000003	   0.299999999999997	   0.300000000000004	    2.67969705473995	                   1
                 0.4	                 0.8	                   0	   0.835999708490132	   0.400000000000001	   0.300000000000003	   0.300000000000006	    2.64211995044332	   0.999999999999998
                 0.8	                 0.8	                   0	   0.875054101111103	   0.400000000000003	   0.300000000000002	   0.300000000000002	    2.64875919718889	                   1
                 1.2	                 0.8	                   0	     1.1088881076779	   0.400000000000001	   0.299999999999998	   0.299999999999996	    2.68851097830524	                   1
                 1.6	                 0.8	                   0	    1.13555775484375	   0.400000000000001	                 0.3	   0.299999999999999	    2.69304481832344	                   1
                 0.4	                 1.2	                   0	   0.869295116166974	   0.399999999999999	   0.300000000000002	   0.300000000000005	    2.64778016974838	   0.999999999999998
                 0.8	                 1.2	                   0	    1.08385655420036	   0.400000000000001	   0.299999999999999	   0.300000000000003	    2.68425561421406	   0.999999999999998
                 1.2	                 1.2	                   0	     1.1193042969931	   0.400000000000001	                 0.3	   0.300000000000001	    2.69028173048883	   0.999999999999999
                 1.6	                 1.2	                   0	    1.05894021508722	   0.399999999999997	                 0.3	   0.299999999999998	    2.68001983656482	                   1
                 0.4	                 1.6	                   0	    1.04700284476344	                 0.4	                 0.3	                 0.3	    2.67799048360978	   0.999999999999997
                 0.8	                 1.6	                   0	    1.18488235857455	                 0.4	   0.300000000000001	   0.299999999999998	    2.70143000095767	   0.999999999999997
                 1.2	                 1.6	                   0	    1.03550292233699	   0.400000000000001	   0.300000000000003	   0.300000000000004	    2.67603549679729	   0.999999999999999
                 1.6	                 1.6	                   0	   0.901273824832403	   0.399999999999999	   0.299999999999997	                 0.3	     2.6532165502215	   0.999999999999999
                 0.4	                 0.4	                   2	    1.12966929015007	   0.400000000000003	   0.300000000000002	                 0.3	    2.69204377932551	   0.999999999999999
                 0.8	                 0.4	                   2	   0.889227492194855	   0.399999999999991	   0.299999999999998	   0.299999999999996	    2.65116867367313	                   1
                 1.2	                 0.4	                   2	   0.830250312329129	                 0.4	   0.300000000000002	   0.299999999999996	    2.64114255309596	                   1
                 1.6	                 0.4	                   2	    1.00100031899765	   0.400000000000008	   0.299999999999996	   0.300000000000004	    2.67017005422961	                   1
                 0.4	                 0.8	                   2	   0.887385118494652	   0.400000000000001	   0.300000000000002	   0.300000000000006	    2.65085547014409	   0.999999999999998
                 0.8	                 0.8	                   2	   0.839663912151058	                 0.4	   0.300000000000007	   0.300000000000002	    2.64274286506568	                   1
                 1.2	                 0.8	                   2	    1.03274386019856	   0.400000000000004	   0.299999999999996	   0.299999999999994	    2.67556645623376	                   1
                 1.6	                 0.8	                   2	    1.09758862604106	   0.399999999999998	   0.299999999999998	   0.299999999999998	    2.68659006642698	                   1
                 0.4	                 1.2	                   2	   0.869829549515947	                 0.4	   0.300000000000002	   0.300000000000007	    2.64787102341771	   0.999999999999998
                 0.8	                 1.2	                   2	    1.01554872093636	   0.399999999999999	   0.299999999999996	   0.300000000000001	    2.67264328255918	   0.999999999999999
                 1.2	                 1.2	                   2	    1.11607779618145	   0.399999999999999	   0.300000000000001	   0.300000000000004	    2.68973322535084	   0.999999999999999
                 1.6	                 1.2	                   2	    1.07599521730362	                 0.4	   0.299999999999998	   0.299999999999996	    2.68291918694162	                   1
                 0.4	                 1.6	                   2	    1.01258850756489	                 0.4	                 0.3	   0.299999999999999	    2.67214004628603	   0.999999999999998
                 0.8	                 1.6	                   2	    1.15547447870583	   0.400000000000004	   0.300000000000003	                 0.3	    2.69643066137999	   0.999999999999998
                 1.2	                 1.6	                   2	     1.0492336261482	   0.400000000000003	   0.300000000000003	   0.300000000000001	     2.6783697164452	   0.999999999999999
                 1.6	                 1.6	                   2	   0.945808591641184	   0.399999999999995	   0.299999999999993	                 0.3	      2.660787460579	                   1
   0.214618370086772	    1.86736337418972	   0.132050051478219	    1.07972176403254	   0.399999999999999	   0.299999999999996	                 0.3	    2.68355269988553	                   1
    0.14520937108617	    1.78358511734907	   0.216359517279464	    1.05766095648685	   0.400000000000004	                 0.3	   0.300000000000002	    2.67980236260276	   0.999999999999998
   0.103650992704651	    0.57854564054051	    1.48032615432547	     1.1279319410754	   0.399999999999995	   0.300000000000003	   0.299999999999999	    2.69174842998282	                   1
   0.243754485506024	    1.43194258657138	    1.54443597697061	   0.861562822626724	   0.399999999999997	   0.299999999999999	   0.299999999999999	    2.64646567984654	   0.999999999999997
   0.587555252460512	  0.0778649938950625	    1.54479400769398	    1.18078770772988	   0.399999999999988	   0.300000000000001	   0.299999999999997	    2.70073391031407	   0.999999999999998
   0.999395291003464	     1.7085808453982	   0.291419154601804	   0.957528616361751	   0.400000000000003	   0.299999999999998	   0.299999999999997	     2.6627798647815	                   1