TITLE="Tetrahedral mesh"
VARIABLES= "x" "y" "z" "rho" "vx" "vy" "vz" "E" "p"
ZONE T="none",N=4486,E=20034,ET=TETRAHEDRON, F=FEPOINT
                   0	                   0	                   2	   0.999604307352136	   0.400000000000232	   0.300000000000109	   0.300000000000154	    2.66993273225011	    1.00000000000003
                   0	                   0	                   0	   0.999190098071685	   0.400000000000166	   0.300000000000024	   0.300000000000113	    2.66986231667233	    1.00000000000002
                   0	                   2	                   2	    1.00048869044442	   0.400000000000179	   0.300000000000123	   0.300000000000132	    2.67008307737568	   0.999999999999992
                   0	                   2	                   0	    1.00038452039931	   0.400000000000145	   0.300000000000061	   0.300000000000102	    2.67006536846801	    1.00000000000001
                   2	                   0	                   2	    1.00013241440325	   0.400000000000195	   0.300000000000054	   0.300000000000117	    2.67002251044872	    1.00000000000002
                   2	                   0	                   0	   0.999923491991459	   0.400000000000107	   0.299999999999943	   0.300000000000068	    2.66998699363855	   0.999999999999983
                   2	                   2	                   2	    1.00071745904437	   0.400000000000121	   0.300000000000126	   0.300000000000083	    2.67012196803761	   0.999999999999983
                   2	                   2	                   0	    1.00069490997892	   0.400000000000092	   0.299999999999962	    0.30000000000007	    2.67011813469646	   0.999999999999998
                   0	                   0	                 0.1	    1.06444988753247	   0.399999999999984	   0.299999999999917	   0.299999999999973	    2.68095648088047	   0.999999999999996
                   0	                   0	                 0.2	    1.11615741392802	   0.399999999999928	    0.29999999999997	    0.29999999999992	    2.68974676036768	   0.999999999999993
                   0	                   0	                 0.3	    1.16356093028438	   0.400000000000022	   0.300000000000003	   0.299999999999954	    2.69780535814836	    1.00000000000001
                   0	                   0	                 0.4	    1.18632787711146	   0.400000000000015	    0.30000000000001	   0.300000000000028	    2.70167573910891	   0.999999999999978
                   0	                   0	                 0.5	    1.19621775564028	    0.40000000000004	   0.300000000000011	   0.300000000000016	    2.70335701845892	    1.00000000000002
                   0	                   0	                 0.6	    1.18775766426982	   0.399999999999968	   0.300000000000007	   0.299999999999946	    2.70191880292587	    1.00000000000001
                   0	                   0	                 0.7	    1.15814659297186	   0.400000000000001	    0.29999999999999	   0.299999999999938	    2.69688492080516	   0.999999999999987
                   0	                   0	                 0.8	    1.11754404381063	   0.399999999999992	   0.300000000000016	   0.300000000000048	    2.68998248744773	   0.999999999999963
                   0	                   0	                 0.9	    1.05966932856948	    0.39999999999998	   0.300000000000005	   0.300000000000126	    2.68014378585691	    1.00000000000003
                   0	                   0	                   1	    1.00823539780627	   0.400000000000025	    0.29999999999999	   0.300000000000139	    2.67140001762706	   0.999999999999976
                   0	                   0	                 1.1	   0.949070111089365	   0.400000000000014	   0.299999999999915	   0.300000000000117	     2.6613419188852	   0.999999999999996
                   0	                   0	                 1.2	   0.897369291042163	   0.399999999999892	   0.299999999999987	    0.30000000000001	    2.65255277947716	    1.00000000000001
                   0	                   0	                 1.3	   0.856248495358808	   0.399999999999924	   0.300000000000059	   0.299999999999943	    2.64556224421097	   0.999999999999998
                   0	                   0	                 1.4	    0.81940538670933	   0.399999999999969	   0.300000000000002	   0.299999999999946	    2.63929891574057	                   1
                   0	                   0	                 1.5	    0.80692114387505	   0.400000000000092	    0.29999999999985	   0.300000000000028	    2.63717659445875	   0.999999999999994
                   0	                   0	                 1.6	   0.813450185851268	   0.399999999999863	   0.300000000000016	   0.300000000000105	    2.63828653159468	   0.999999999999992
                   0	                   0	                 1.7	   0.843740039330681	   0.399999999999943	   0.300000000000161	   0.300000000000092	    2.64343580668634	    1.00000000000003
                   0	                   0	                 1.8	   0.881619270357879	   0.399999999999942	   0.300000000000056	   0.300000000000234	    2.64987527596086	   0.999999999999986
                   0	                   0	                 1.9	   0.936361448908656	   0.400000000000208	   0.300000000000233	   0.300000000000193	    2.65918144631473	    1.00000000000002
                   0	                 0.1	                   2	    1.06266574344255	    0.40000000000002	   0.300000000000008	   0.300000000000054	    2.68065317638528	    1.00000000000001
                   0	                 0.2	                   2	     1.1159235724911	   0.399999999999898	   0.299999999999984	   0.300000000000076	    2.68970700732346	                   1
                   0	                 0.3	                   2	    1.15842004831284	   0.399999999999947	   0.300000000000018	   0.299999999999985	    2.69693140821311	   0.999999999999981
                   0	                 0.4	                   2	    1.18368367383194	   0.400000000000181	   0.300000000000028	   0.299999999999936	    2.70122622455151	                   1
                   0	                 0.5	                   2	    1.19767738321833	   0.400000000000042	   0.300000000000071	   0.299999999999956	    2.70360515514716	                   1
                   0	                 0.6	                   2	    1.19089329810472	    0.39999999999981	   0.299999999999943	   0.299999999999987	    2.70245186067767	   0.999999999999991
                   0	                 0.7	                   2	    1.16153980300865	   0.399999999999837	   0.299999999999971	   0.300000000000121	    2.69746176651137	   0.999999999999978
                   0	                 0.8	                   2	    1.11601685951172	   0.399999999999964	   0.299999999999963	   0.300000000000083	    2.68972286611697	   0.999999999999993
                   0	                 0.9	                   2	    1.06271236897413	   0.399999999999982	   0.300000000000036	   0.300000000000016	    2.68066110272558	   0.999999999999988
                   0	                   1	                   2	    1.00029532099492	    0.40000000000012	   0.300000000000073	   0.300000000000011	    2.67005020456922	                   1
                   0	                 1.1	                   2	    0.93758876937816	   0.400000000000174	   0.300000000000029	    0.29999999999996	    2.65939009079438	    1.00000000000001
                   0	                 1.2	                   2	   0.885563229584812	   0.399999999999999	   0.300000000000003	                 0.3	     2.6505457490294	   0.999999999999993
                   0	                 1.3	                   2	   0.853726337421591	   0.399999999999968	   0.299999999999946	   0.300000000000038	    2.64513347736168	    1.00000000000001
                   0	                 1.4	                   2	   0.817123322926068	   0.399999999999916	   0.299999999999988	   0.299999999999912	    2.63891096489732	   0.999999999999976
                   0	                 1.5	                   2	   0.803088005400487	   0.400000000000127	    0.30000000000001	   0.300000000000009	    2.63652496091814	                   1
                   0	                 1.6	                   2	   0.812329118976519	   0.399999999999899	   0.299999999999871	   0.299999999999923	    2.63809595022592	   0.999999999999998
                   0	                 1.7	                   2	   0.839519031770731	     0.3999999999998	   0.299999999999778	     0.2999999999999	    2.64271823540089	    1.00000000000001
                   0	                 1.8	                   2	   0.885575029535709	   0.400000000000073	   0.299999999999829	   0.300000000000063	    2.65054775502109	    1.00000000000001
                   0	                 1.9	                   2	   0.940173321392674	   0.400000000000149	   0.300000000000031	   0.300000000000098	    2.65982946463685	                   1
                   0	                   2	                 0.1	    1.06413578729693	   0.399999999999994	   0.299999999999911	   0.299999999999966	    2.68090308384044	   0.999999999999999
                   0	                   2	                 0.2	    1.11771904110964	   0.399999999999929	   0.299999999999978	   0.299999999999923	    2.69001223698856	   0.999999999999994
                   0	                   2	                 0.3	    1.16386619552887	   0.400000000000018	   0.300000000000005	   0.299999999999964	    2.69785725323993	    1.00000000000001
                   0	                   2	                 0.4	    1.18832850318666	   0.400000000000042	   0.300000000000011	   0.300000000000011	    2.70201584554176	   0.999999999999998
                   0	                   2	                 0.5	    1.20020604359207	   0.400000000000029	   0.300000000000011	   0.300000000000009	    2.70403502741069	                   1
                   0	                   2	                 0.6	    1.18758839993754	   0.399999999999972	   0.300000000000001	   0.299999999999955	    2.70189002798939	    1.00000000000002
                   0	                   2	                 0.7	    1.15975151393686	   0.400000000000008	   0.299999999999993	   0.299999999999969	    2.69715775736924	   0.999999999999995
                   0	                   2	                 0.8	    1.11700090567402	   0.399999999999986	   0.300000000000021	   0.300000000000035	    2.68989015396454	   0.999999999999978
                   0	                   2	                 0.9	    1.05813087019127	   0.399999999999947	   0.300000000000021	   0.300000000000098	     2.6798822479325	   0.999999999999986
                   0	                   2	                   1	    1.00263663519263	   0.400000000000058	   0.299999999999972	   0.300000000000077	     2.6704482279828	                   1
                   0	                   2	                 1.1	   0.940789965303134	   0.399999999999972	   0.299999999999869	   0.300000000000085	    2.65993429410152	    1.00000000000001
                   0	                   2	                 1.2	   0.892461565670012	   0.399999999999936	   0.299999999999997	   0.300000000000018	     2.6517184661639	    1.00000000000001
                   0	                   2	                 1.3	   0.847239312592083	   0.399999999999911	    0.30000000000004	   0.299999999999956	    2.64403068314062	   0.999999999999997
                   0	                   2	                 1.4	   0.816269023305864	   0.399999999999983	    0.30000000000004	   0.299999999999959	      2.638765733962	                   1
                   0	                   2	                 1.5	    0.80410967553456	   0.400000000000091	   0.299999999999879	    0.30000000000002	    2.63669864484092	    1.00000000000002
                   0	                   2	                 1.6	   0.812177274163601	   0.399999999999872	   0.300000000000058	   0.300000000000067	     2.6380701366078	   0.999999999999998
                   0	                   2	                 1.7	   0.842432602984639	    0.39999999999996	   0.300000000000111	   0.300000000000046	    2.64321354250743	    1.00000000000001
                   0	                   2	                 1.8	   0.882241942591937	   0.400000000000005	   0.300000000000061	   0.300000000000183	    2.64998113024069	   0.999999999999996
                   0	                   2	                 1.9	   0.939549693655002	   0.400000000000228	    0.30000000000025	    0.30000000000021	    2.65972344792161	    1.00000000000002
                   0	                 0.1	                   0	     1.0625456458199	    0.40000000000004	   0.299999999999997	    0.30000000000006	    2.68063275978941	   0.999999999999995
                   0	                 0.2	                   0	    1.11437475915043	   0.399999999999877	   0.299999999999959	    0.30000000000005	    2.68944370905547	   0.999999999999979
                   0	                 0.3	                   0	      1.152307953356	   0.399999999999936	   0.300000000000015	   0.299999999999995	    2.69589235207049	   0.999999999999997
                   0	                 0.4	                   0	    1.17726312792921	    0.40000000000016	   0.300000000000043	   0.299999999999948	    2.70013473174801	    0.99999999999999
                   0	                 0.5	                   0	    1.19365652292396	   0.400000000000066	   0.300000000000062	   0.299999999999953	    2.70292160889709	   0.999999999999993
                   0	                 0.6	                   0	    1.18913000513043	    0.39999999999983	   0.299999999999942	   0.300000000000003	    2.70215210087209	    1.00000000000001
                   0	                 0.7	                   0	    1.16154872461045	   0.399999999999805	   0.299999999999926	   0.300000000000085	    2.69746328318365	   0.999999999999985
                   0	                 0.8	                   0	    1.11667888129016	   0.399999999999947	    0.30000000000002	   0.300000000000097	    2.68983540981933	   0.999999999999995
                   0	                 0.9	                   0	    1.06372127008249	   0.400000000000022	   0.300000000000026	    0.30000000000002	    2.68083261591405	   0.999999999999999
                   0	                   1	                   0	    1.00120558062739	   0.400000000000101	   0.300000000000101	   0.300000000000012	    2.67020494870675	    1.00000000000001
                   0	                 1.1	                   0	   0.938010892085324	   0.400000000000179	   0.300000000000028	   0.299999999999958	    2.65946185165456	   0.999999999999998
                   0	                 1.2	                   0	   0.889129073999079	   0.400000000000002	   0.300000000000002	   0.299999999999991	    2.65115194257982	    0.99999999999999
                   0	                 1.3	                   0	   0.856988231444613	   0.399999999999937	   0.299999999999897	   0.300000000000014	    2.64568799934556	    1.00000000000001
                   0	                 1.4	                   0	   0.820116347145093	   0.399999999999904	    0.29999999999997	   0.299999999999891	    2.63941977901456	   0.999999999999984
                   0	                 1.5	                   0	   0.803512232812327	    0.40000000000005	   0.299999999999982	   0.299999999999976	     2.6365970795781	   0.999999999999998
                   0	                 1.6	                   0	    0.81244132239197	   0.399999999999978	    0.29999999999998	   0.299999999999983	    2.63811502480665	    1.00000000000001
                   0	                 1.7	                   0	   0.841218943457977	   0.399999999999791	   0.299999999999759	   0.299999999999916	    2.64300722038768	   0.999999999999991
                   0	                 1.8	                   0	   0.885454225454527	    0.40000000000002	    0.29999999999979	    0.30000000000003	    2.65052721832722	   0.999999999999997
                   0	                 1.9	                   0	   0.939634755258946	   0.400000000000165	   0.300000000000016	   0.300000000000092	    2.65973790839408	   0.999999999999987
                   2	                   0	                 0.1	    1.06436825699598	   0.399999999999968	    0.29999999999991	   0.299999999999976	    2.68094260368929	    1.00000000000001
                   2	                   0	                 0.2	    1.11740525871351	   0.399999999999945	   0.299999999999986	   0.299999999999932	    2.68995889398124	   0.999999999999999
                   2	                   0	                 0.3	    1.16410184900455	   0.400000000000064	   0.300000000000009	   0.299999999999969	    2.69789731433077	    0.99999999999999
                   2	                   0	                 0.4	    1.18793358987586	   0.400000000000011	   0.299999999999984	   0.300000000000018	    2.70194871027889	   0.999999999999994
                   2	                   0	                 0.5	    1.20018774934737	   0.400000000000042	   0.300000000000028	   0.300000000000014	    2.70403191738909	                   1
                   2	                   0	                 0.6	    1.18683200647375	   0.399999999999937	   0.299999999999982	   0.299999999999916	    2.70176144110044	   0.999999999999989
                   2	                   0	                 0.7	    1.16009156141494	   0.400000000000008	   0.299999999999986	   0.299999999999952	    2.69721556544048	   0.999999999999984
                   2	                   0	                 0.8	    1.11770448675453	   0.399999999999995	   0.299999999999988	   0.300000000000113	    2.69000976274826	   0.999999999999983
                   2	                   0	                 0.9	    1.05855310863564	   0.400000000000025	   0.300000000000083	   0.300000000000182	     2.6799540284682	    1.00000000000002
                   2	                   0	                   1	    1.00224841277396	   0.400000000000033	   0.299999999999951	   0.300000000000167	    2.67038223017164	    1.00000000000001
                   2	                   0	                 1.1	   0.941583804373678	   0.399999999999941	   0.299999999999886	   0.300000000000132	    2.66006924674359	    1.00000000000003
                   2	                   0	                 1.2	   0.893610448289714	    0.39999999999988	   0.299999999999988	   0.299999999999987	    2.65191377620923	    1.00000000000001
                   2	                   0	                 1.3	   0.846680151248496	   0.399999999999958	   0.300000000000091	   0.299999999999945	     2.6439356257122	   0.999999999999983
                   2	                   0	                 1.4	   0.815552582797348	   0.399999999999975	   0.300000000000012	   0.300000000000012	    2.63864393907555	                   1
                   2	                   0	                 1.5	   0.803105362574165	   0.400000000000153	   0.299999999999767	   0.300000000000027	    2.63652791163752	   0.999999999999965
                   2	                   0	                 1.6	   0.813122792773944	   0.399999999999851	   0.300000000000012	   0.300000000000156	    2.63823087477152	   0.999999999999983
                   2	                   0	                 1.7	   0.842534613252648	   0.400000000000043	   0.300000000000167	   0.300000000000134	    2.64323088425316	    1.00000000000005
                   2	                   0	                 1.8	   0.882058153606189	   0.399999999999882	   0.300000000000066	   0.300000000000231	     2.6499498861131	                   1
                   2	                   0	                 1.9	   0.938388980584994	   0.400000000000265	   0.300000000000328	   0.300000000000164	    2.65952612669967	   0.999999999999994
                   2	                 0.1	                   2	    1.06334061948686	    0.39999999999998	   0.299999999999975	   0.300000000000033	    2.68076790531277	                   1
                   2	                 0.2	                   2	     1.1166486622697	   0.399999999999919	   0.300000000000045	   0.300000000000069	     2.6898302725859	    1.00000000000002
                   2	                 0.3	                   2	    1.16082522290114	   0.399999999999937	   0.300000000000029	    0.29999999999998	     2.6973402878931	   0.999999999999973
                   2	                 0.4	                   2	    1.18577938971425	   0.400000000000262	   0.300000000000063	   0.299999999999961	    2.70158249625151	    0.99999999999998
                   2	                 0.5	                   2	    1.19973947669798	   0.400000000000038	    0.30000000000008	   0.299999999999961	    2.70395571103874	    1.00000000000002
                   2	                 0.6	                   2	    1.19190979189387	   0.399999999999752	   0.299999999999889	   0.299999999999986	    2.70262466462171	   0.999999999999964
                   2	                 0.7	                   2	    1.16213309844104	   0.399999999999846	   0.299999999999975	   0.300000000000139	    2.69756262673489	   0.999999999999977
                   2	                 0.8	                   2	    1.11599046846712	   0.399999999999987	    0.29999999999998	   0.300000000000053	    2.68971837963943	    1.00000000000001
                   2	                 0.9	                   2	    1.06232309081799	   0.399999999999967	   0.300000000000026	   0.300000000000026	    2.68059492543901	   0.999999999999979
                   2	                   1	                   2	   0.999883053319221	   0.400000000000129	   0.300000000000076	   0.299999999999997	     2.6699801190644	    1.00000000000002
                   2	                 1.1	                   2	   0.937513487949935	   0.400000000000184	   0.299999999999963	   0.299999999999969	    2.65937729295152	   0.999999999999991
                   2	                 1.2	                   2	   0.884275186229064	   0.399999999999961	   0.300000000000013	   0.300000000000004	    2.65032678165897	    1.00000000000002
                   2	                 1.3	                   2	   0.851263572951325	   0.399999999999964	   0.299999999999847	   0.300000000000009	    2.64471480740163	   0.999999999999983
                   2	                 1.4	                   2	   0.812937853752464	   0.399999999999841	   0.300000000000017	   0.299999999999904	    2.63819943513787	    1.00000000000001
                   2	                 1.5	                   2	   0.802825455575491	   0.400000000000182	   0.300000000000125	   0.300000000000004	    2.63648032744791	   0.999999999999993
                   2	                 1.6	                   2	    0.81127166900752	   0.399999999999886	   0.299999999999863	   0.299999999999935	    2.63791618373123	    1.00000000000001
                   2	                 1.7	                   2	   0.838323785898638	   0.399999999999737	   0.299999999999779	   0.299999999999846	    2.64251504360264	    1.00000000000002
                   2	                 1.8	                   2	   0.885452988515881	   0.400000000000105	   0.299999999999816	   0.300000000000076	    2.65052700804771	   0.999999999999999
                   2	                 1.9	                   2	    0.93998007776933	   0.400000000000171	   0.300000000000071	   0.300000000000068	    2.65979661322094	    1.00000000000002
                   2	                   2	                 0.1	    1.06432291229371	   0.399999999999978	   0.299999999999912	   0.299999999999961	    2.68093489508991	    1.00000000000001
                   2	                   2	                 0.2	    1.11679558831537	   0.399999999999929	   0.299999999999987	   0.299999999999938	    2.68985525001357	    1.00000000000001
                   2	                   2	                 0.3	    1.16455993942188	   0.400000000000031	   0.300000000000018	   0.299999999999975	    2.69797518970172	   0.999999999999993
                   2	                   2	                 0.4	    1.18816981527845	   0.400000000000048	   0.300000000000003	   0.300000000000005	    2.70198886859737	                   1
                   2	                   2	                 0.5	     1.2029903130389	   0.400000000000024	   0.300000000000031	   0.299999999999996	    2.70450835321662	   0.999999999999992
                   2	                   2	                 0.6	    1.18705201639773	   0.399999999999959	   0.300000000000008	   0.299999999999951	    2.70179884278764	    1.00000000000003
                   2	                   2	                 0.7	    1.16054009609168	   0.400000000000024	   0.299999999999988	   0.299999999999977	    2.69729181633555	   0.999999999999985
                   2	                   2	                 0.8	    1.11777644518286	   0.399999999999987	   0.299999999999985	   0.300000000000031	    2.69002199568105	   0.999999999999987
                   2	                   2	                 0.9	    1.05789434443799	   0.399999999999963	   0.300000000000079	   0.300000000000069	    2.67984203855438	   0.999999999999958
                   2	                   2	                   1	    1.00080214467442	   0.400000000000104	   0.299999999999939	   0.300000000000063	    2.67013636459475	    1.00000000000002
                   2	                   2	                 1.1	   0.937710855135975	   0.399999999999935	   0.299999999999862	   0.300000000000046	    2.65941084537315	    1.00000000000003
                   2	                   2	                 1.2	   0.891834274579663	   0.399999999999924	   0.300000000000026	   0.300000000000007	    2.65161182667856	    1.00000000000001
                   2	                   2	                 1.3	   0.841899146122376	   0.399999999999933	   0.300000000000056	   0.299999999999953	    2.64312285484077	   0.999999999999995
                   2	                   2	                 1.4	   0.814909693691061	   0.399999999999988	   0.300000000000051	   0.299999999999965	    2.63853464792741	    0.99999999999997
                   2	                   2	                 1.5	   0.802223600164062	   0.400000000000144	    0.29999999999986	    0.30000000000006	    2.63637801202795	    1.00000000000001
                   2	                   2	                 1.6	   0.811791856002969	    0.39999999999985	    0.30000000000008	   0.300000000000039	    2.63800461552046	   0.999999999999989
                   2	                   2	                 1.7	   0.842492919944714	   0.399999999999992	    0.30000000000009	   0.300000000000022	    2.64322379639061	   0.999999999999993
                   2	                   2	                 1.8	   0.881760901730573	   0.399999999999989	   0.300000000000008	   0.300000000000138	    2.64989935329422	   0.999999999999995
                   2	                   2	                 1.9	   0.939536876352009	   0.400000000000254	   0.300000000000284	   0.300000000000214	    2.65972126898001	   0.999999999999974
                   2	                 0.1	                   0	    1.06253795651726	   0.400000000000002	   0.299999999999963	   0.300000000000036	    2.68063145260792	   0.999999999999995
                   2	                 0.2	                   0	    1.11619256497964	   0.399999999999868	    0.29999999999998	   0.300000000000031	    2.68975273604641	   0.999999999999972
                   2	                 0.3	                   0	    1.15905530176277	   0.399999999999928	   0.300000000000013	   0.299999999999985	    2.69703940129968	    1.00000000000002
                   2	                 0.4	                   0	          1.18408349	   0.400000000000236	    0.30000000000007	   0.299999999999982	    2.70129419330009	   0.999999999999982
                   2	                 0.5	                   0	    1.19790794408472	   0.400000000000027	   0.300000000000039	   0.299999999999958	    2.70364435049434	   0.999999999999969
                   2	                 0.6	                   0	    1.19101053358249	   0.399999999999812	   0.299999999999909	   0.300000000000015	    2.70247179070893	    1.00000000000001
                   2	                 0.7	                   0	    1.16160286164221	   0.399999999999837	   0.299999999999944	   0.300000000000126	    2.69747248647911	   0.999999999999992
                   2	                 0.8	                   0	    1.11623742192492	   0.399999999999968	   0.300000000000049	   0.300000000000088	    2.68976036172732	    1.00000000000002
                   2	                 0.9	                   0	    1.06290964232193	   0.400000000000035	   0.300000000000028	   0.300000000000043	    2.68069463919475	   0.999999999999995
                   2	                   1	                   0	   0.999862371578694	   0.400000000000118	   0.300000000000142	   0.300000000000021	    2.66997660316853	    1.00000000000002
                   2	                 1.1	                   0	   0.938082204309966	   0.400000000000165	   0.300000000000001	   0.299999999999939	    2.65947397473271	   0.999999999999988
                   2	                 1.2	                   0	    0.88598466781254	   0.399999999999965	   0.300000000000006	   0.299999999999986	    2.65061739352812	                   1
                   2	                 1.3	                   0	   0.852010298009124	   0.399999999999941	   0.299999999999868	   0.299999999999988	    2.64484175066151	                   1
                   2	                 1.4	                   0	   0.815134609570222	    0.39999999999986	   0.299999999999957	   0.299999999999886	    2.63857288362685	   0.999999999999999
                   2	                 1.5	                   0	    0.80260214367464	   0.400000000000094	   0.300000000000027	   0.299999999999983	     2.6364423644247	    0.99999999999999
                   2	                 1.6	                   0	   0.811818319911624	   0.399999999999927	   0.299999999999965	   0.299999999999976	    2.63800911438498	    1.00000000000002
                   2	                 1.7	                   0	   0.840067742064413	   0.399999999999769	   0.299999999999756	     0.2999999999999	    2.64281151615073	   0.999999999999978